
     Program PWSCF v.5.1.2 starts on 12May2015 at 14:45:45 

     This program is part of the open-source Quantum ESPRESSO suite
     for quantum simulation of materials; please cite
         "P. Giannozzi et al., J. Phys.:Condens. Matter 21 395502 (2009);
          URL http://www.quantum-espresso.org", 
     in publications or presentations arising from this work. More details at
     http://www.quantum-espresso.org/quote

     Serial version
     Reading input from Fe_bcc_5.5_9.pw.in

     Current dimensions of program PWSCF are:
     Max number of different atomic species (ntypx) = 10
     Max number of k-points (npk) =  40000
     Max angular momentum in pseudopotentials (lmaxx) =  3
               file Fe.pbe-spn-kjpaw_psl.0.2.1.UPF: wavefunction(s)  3D renormalized

     G-vector sticks info
     --------------------
     sticks:   dense  smooth     PW     G-vecs:    dense   smooth      PW
     Sum         415     341    117                 5473     3997     767

     Generating pointlists ...
     new r_m :   0.3572 (alat units)  1.9648 (a.u.) for type    1


     bravais-lattice index     =            3
     lattice parameter (alat)  =       5.5000  a.u.
     unit-cell volume          =      83.1875 (a.u.)^3
     number of atoms/cell      =            1
     number of atomic types    =            1
     number of electrons       =        16.00
     number of Kohn-Sham states=           12
     kinetic-energy cutoff     =      50.0000  Ry
     charge density cutoff     =     250.0000  Ry
     convergence threshold     =      1.0E-08
     mixing beta               =       0.7000
     number of iterations used =            8  plain     mixing
     Exchange-correlation      =  SLA  PW   PBX  PBC ( 1  4  3  4 0 0)

     celldm(1)=   5.500000  celldm(2)=   0.000000  celldm(3)=   0.000000
     celldm(4)=   0.000000  celldm(5)=   0.000000  celldm(6)=   0.000000

     crystal axes: (cart. coord. in units of alat)
               a(1) = (   0.500000   0.500000   0.500000 )  
               a(2) = (  -0.500000   0.500000   0.500000 )  
               a(3) = (  -0.500000  -0.500000   0.500000 )  

     reciprocal axes: (cart. coord. in units 2 pi/alat)
               b(1) = (  1.000000  0.000000  1.000000 )  
               b(2) = ( -1.000000  1.000000  0.000000 )  
               b(3) = (  0.000000 -1.000000  1.000000 )  


     PseudoPot. # 1 for Fe read from file:
     ./Fe.pbe-spn-kjpaw_psl.0.2.1.UPF
     MD5 check sum: a0a08122d52b112de96d1da1d7dd020f
     Pseudo is Projector augmented-wave + core cor, Zval = 16.0
     Generated using "atomic" code by A. Dal Corso  v.5.0.2 svn rev. 9415
     Shape of augmentation charge: PSQ
     Using radial grid of 1191 points,  6 beta functions with: 
                l(1) =   0
                l(2) =   0
                l(3) =   1
                l(4) =   1
                l(5) =   2
                l(6) =   2
     Q(r) pseudized with 0 coefficients 


     atomic species   valence    mass     pseudopotential
        Fe            16.00    55.85000     Fe( 1.00)

     Starting magnetic structure 
     atomic species   magnetization
        Fe           0.700

     48 Sym. Ops., with inversion, found



   Cartesian axes

     site n.     atom                  positions (alat units)
         1           Fe  tau(   1) = (   0.0000000   0.0000000   0.0000000  )

     number of k points=    70  Marzari-Vanderbilt smearing, width (Ry)=  0.0250
                       cart. coord. in units 2pi/alat
        k(    1) = (   0.0000000   0.0000000   0.0000000), wk =   0.0013717
        k(    2) = (   0.0000000  -0.1111111   0.1111111), wk =   0.0164609
        k(    3) = (   0.0000000  -0.2222222   0.2222222), wk =   0.0164609
        k(    4) = (   0.0000000  -0.3333333   0.3333333), wk =   0.0164609
        k(    5) = (   0.0000000  -0.4444444   0.4444444), wk =   0.0164609
        k(    6) = (  -0.1111111  -0.1111111   0.2222222), wk =   0.0329218
        k(    7) = (  -0.1111111  -0.2222222   0.3333333), wk =   0.0658436
        k(    8) = (  -0.1111111  -0.3333333   0.4444444), wk =   0.0658436
        k(    9) = (  -0.1111111   0.5555556  -0.4444444), wk =   0.0329218
        k(   10) = (  -0.2222222  -0.2222222   0.4444444), wk =   0.0329218
        k(   11) = (  -0.2222222   0.6666667  -0.4444444), wk =   0.0658436
        k(   12) = (  -0.3333333   0.6666667  -0.3333333), wk =   0.0109739
        k(   13) = (   0.0000000   0.0000000   0.2222222), wk =   0.0082305
        k(   14) = (   0.0000000  -0.1111111   0.3333333), wk =   0.0329218
        k(   15) = (   0.0000000  -0.2222222   0.4444444), wk =   0.0329218
        k(   16) = (   0.0000000  -0.3333333   0.5555556), wk =   0.0329218
        k(   17) = (  -0.1111111  -0.1111111   0.4444444), wk =   0.0329218
        k(   18) = (  -0.1111111  -0.2222222   0.5555556), wk =   0.0658436
        k(   19) = (  -0.1111111   0.6666667  -0.3333333), wk =   0.0329218
        k(   20) = (  -0.2222222   0.2222222   0.2222222), wk =   0.0109739
        k(   21) = (  -0.2222222   0.7777778  -0.3333333), wk =   0.0329218
        k(   22) = (  -0.3333333   0.3333333   0.2222222), wk =   0.0329218
        k(   23) = (   0.5555556  -0.5555556   0.2222222), wk =   0.0329218
        k(   24) = (   0.5555556  -0.6666667   0.3333333), wk =   0.0329218
        k(   25) = (   0.4444444  -0.5555556   0.3333333), wk =   0.0329218
        k(   26) = (   0.0000000   0.0000000   0.4444444), wk =   0.0082305
        k(   27) = (   0.0000000  -0.1111111   0.5555556), wk =   0.0329218
        k(   28) = (   0.0000000  -0.2222222   0.6666667), wk =   0.0329218
        k(   29) = (  -0.1111111  -0.1111111   0.6666667), wk =   0.0329218
        k(   30) = (  -0.1111111   0.7777778  -0.2222222), wk =   0.0329218
        k(   31) = (   0.5555556  -0.5555556   0.4444444), wk =   0.0109739
        k(   32) = (   0.0000000   0.0000000   0.6666667), wk =   0.0082305
        k(   33) = (   0.0000000  -0.1111111   0.7777778), wk =   0.0329218
        k(   34) = (  -0.1111111   0.8888889  -0.1111111), wk =   0.0109739
        k(   35) = (   0.0000000   0.0000000   0.8888889), wk =   0.0082305
        k(   36) = (   0.0000000   0.0000000   0.0000000), wk =   0.0013717
        k(   37) = (   0.0000000  -0.1111111   0.1111111), wk =   0.0164609
        k(   38) = (   0.0000000  -0.2222222   0.2222222), wk =   0.0164609
        k(   39) = (   0.0000000  -0.3333333   0.3333333), wk =   0.0164609
        k(   40) = (   0.0000000  -0.4444444   0.4444444), wk =   0.0164609
        k(   41) = (  -0.1111111  -0.1111111   0.2222222), wk =   0.0329218
        k(   42) = (  -0.1111111  -0.2222222   0.3333333), wk =   0.0658436
        k(   43) = (  -0.1111111  -0.3333333   0.4444444), wk =   0.0658436
        k(   44) = (  -0.1111111   0.5555556  -0.4444444), wk =   0.0329218
        k(   45) = (  -0.2222222  -0.2222222   0.4444444), wk =   0.0329218
        k(   46) = (  -0.2222222   0.6666667  -0.4444444), wk =   0.0658436
        k(   47) = (  -0.3333333   0.6666667  -0.3333333), wk =   0.0109739
        k(   48) = (   0.0000000   0.0000000   0.2222222), wk =   0.0082305
        k(   49) = (   0.0000000  -0.1111111   0.3333333), wk =   0.0329218
        k(   50) = (   0.0000000  -0.2222222   0.4444444), wk =   0.0329218
        k(   51) = (   0.0000000  -0.3333333   0.5555556), wk =   0.0329218
        k(   52) = (  -0.1111111  -0.1111111   0.4444444), wk =   0.0329218
        k(   53) = (  -0.1111111  -0.2222222   0.5555556), wk =   0.0658436
        k(   54) = (  -0.1111111   0.6666667  -0.3333333), wk =   0.0329218
        k(   55) = (  -0.2222222   0.2222222   0.2222222), wk =   0.0109739
        k(   56) = (  -0.2222222   0.7777778  -0.3333333), wk =   0.0329218
        k(   57) = (  -0.3333333   0.3333333   0.2222222), wk =   0.0329218
        k(   58) = (   0.5555556  -0.5555556   0.2222222), wk =   0.0329218
        k(   59) = (   0.5555556  -0.6666667   0.3333333), wk =   0.0329218
        k(   60) = (   0.4444444  -0.5555556   0.3333333), wk =   0.0329218
        k(   61) = (   0.0000000   0.0000000   0.4444444), wk =   0.0082305
        k(   62) = (   0.0000000  -0.1111111   0.5555556), wk =   0.0329218
        k(   63) = (   0.0000000  -0.2222222   0.6666667), wk =   0.0329218
        k(   64) = (  -0.1111111  -0.1111111   0.6666667), wk =   0.0329218
        k(   65) = (  -0.1111111   0.7777778  -0.2222222), wk =   0.0329218
        k(   66) = (   0.5555556  -0.5555556   0.4444444), wk =   0.0109739
        k(   67) = (   0.0000000   0.0000000   0.6666667), wk =   0.0082305
        k(   68) = (   0.0000000  -0.1111111   0.7777778), wk =   0.0329218
        k(   69) = (  -0.1111111   0.8888889  -0.1111111), wk =   0.0109739
        k(   70) = (   0.0000000   0.0000000   0.8888889), wk =   0.0082305

     Dense  grid:     5473 G-vectors     FFT dimensions: (  24,  24,  24)

     Smooth grid:     3997 G-vectors     FFT dimensions: (  24,  24,  24)

     Largest allocated arrays     est. size (Mb)     dimensions
        Kohn-Sham Wavefunctions         0.10 Mb     (     531,   12)
        NL pseudopotentials             0.15 Mb     (     531,   18)
        Each V/rho on FFT grid          0.42 Mb     (   13824,   2)
        Each G-vector array             0.04 Mb     (    5473)
        G-vector shells                 0.00 Mb     (      89)
     Largest temporary arrays     est. size (Mb)     dimensions
        Auxiliary wavefunctions         0.39 Mb     (     531,   48)
        Each subspace H/S matrix        0.04 Mb     (      48,   48)
        Each <psi_i|beta_j> matrix      0.00 Mb     (      18,   12)
        Arrays for rho mixing           1.69 Mb     (   13824,    8)

     Check: negative/imaginary core charge=   -0.000400    0.000000

     Initial potential from superposition of free atoms

     starting charge   15.99956, renormalised to   16.00000
     Starting wfc are   13 randomized atomic wfcs

     total cpu time spent up to now is        2.0 secs

     Self-consistent Calculation

     iteration #  1     ecut=    50.00 Ry     beta=0.70
     Davidson diagonalization with overlap
     ethr =  1.00E-02,  avg # of iterations =  3.2

     negative rho (up, down):  0.000E+00 3.803E-04

     Magnetic moment per site:
     atom:    1    charge:   14.3205    magn:    5.7366    constr:    0.0000

     total cpu time spent up to now is        4.2 secs

     total energy              =    -328.98971353 Ry
     Harris-Foulkes estimate   =    -328.07713327 Ry
     estimated scf accuracy    <       1.49353292 Ry

     total magnetization       =     3.89 Bohr mag/cell
     absolute magnetization    =     3.92 Bohr mag/cell

     iteration #  2     ecut=    50.00 Ry     beta=0.70
     Davidson diagonalization with overlap
     ethr =  9.33E-03,  avg # of iterations =  1.2

     negative rho (up, down):  0.000E+00 4.037E-04

     Magnetic moment per site:
     atom:    1    charge:   14.5527    magn:    3.6004    constr:    0.0000

     total cpu time spent up to now is        6.0 secs

     total energy              =    -329.15356133 Ry
     Harris-Foulkes estimate   =    -329.10784503 Ry
     estimated scf accuracy    <       0.35822444 Ry

     total magnetization       =     3.10 Bohr mag/cell
     absolute magnetization    =     3.23 Bohr mag/cell

     iteration #  3     ecut=    50.00 Ry     beta=0.70
     Davidson diagonalization with overlap
     ethr =  2.24E-03,  avg # of iterations =  2.1

     negative rho (up, down):  0.000E+00 4.206E-04

     Magnetic moment per site:
     atom:    1    charge:   14.4370    magn:    2.5749    constr:    0.0000

     total cpu time spent up to now is        8.0 secs

     total energy              =    -329.17582199 Ry
     Harris-Foulkes estimate   =    -329.34749375 Ry
     estimated scf accuracy    <       0.49443276 Ry

     total magnetization       =     2.63 Bohr mag/cell
     absolute magnetization    =     2.78 Bohr mag/cell

     iteration #  4     ecut=    50.00 Ry     beta=0.70
     Davidson diagonalization with overlap
     ethr =  2.24E-03,  avg # of iterations =  2.0

     negative rho (up, down):  0.000E+00 2.930E-04

     Magnetic moment per site:
     atom:    1    charge:   14.4712    magn:    2.5216    constr:    0.0000

     total cpu time spent up to now is        9.9 secs

     total energy              =    -329.25646180 Ry
     Harris-Foulkes estimate   =    -329.25586071 Ry
     estimated scf accuracy    <       0.00115128 Ry

     total magnetization       =     2.48 Bohr mag/cell
     absolute magnetization    =     2.65 Bohr mag/cell

     iteration #  5     ecut=    50.00 Ry     beta=0.70
     Davidson diagonalization with overlap
     ethr =  7.20E-06,  avg # of iterations =  3.6

     negative rho (up, down):  0.000E+00 2.913E-04

     Magnetic moment per site:
     atom:    1    charge:   14.4693    magn:    2.5065    constr:    0.0000

     total cpu time spent up to now is       12.4 secs

     total energy              =    -329.25872004 Ry
     Harris-Foulkes estimate   =    -329.25854188 Ry
     estimated scf accuracy    <       0.00041422 Ry

     total magnetization       =     2.40 Bohr mag/cell
     absolute magnetization    =     2.56 Bohr mag/cell

     iteration #  6     ecut=    50.00 Ry     beta=0.70
     Davidson diagonalization with overlap
     ethr =  2.59E-06,  avg # of iterations =  1.0

     negative rho (up, down):  0.000E+00 3.260E-04

     Magnetic moment per site:
     atom:    1    charge:   14.4710    magn:    2.5935    constr:    0.0000

     total cpu time spent up to now is       14.2 secs

     total energy              =    -329.25780593 Ry
     Harris-Foulkes estimate   =    -329.25874922 Ry
     estimated scf accuracy    <       0.00036827 Ry

     total magnetization       =     2.38 Bohr mag/cell
     absolute magnetization    =     2.54 Bohr mag/cell

     iteration #  7     ecut=    50.00 Ry     beta=0.70
     Davidson diagonalization with overlap
     ethr =  2.30E-06,  avg # of iterations =  1.2

     negative rho (up, down):  0.000E+00 2.300E-04

     Magnetic moment per site:
     atom:    1    charge:   14.4618    magn:    2.3384    constr:    0.0000

     total cpu time spent up to now is       15.9 secs

     total energy              =    -329.25756931 Ry
     Harris-Foulkes estimate   =    -329.25795428 Ry
     estimated scf accuracy    <       0.00084538 Ry

     total magnetization       =     2.44 Bohr mag/cell
     absolute magnetization    =     2.60 Bohr mag/cell

     iteration #  8     ecut=    50.00 Ry     beta=0.70
     Davidson diagonalization with overlap
     ethr =  2.30E-06,  avg # of iterations =  2.0

     negative rho (up, down):  0.000E+00 2.168E-04

     Magnetic moment per site:
     atom:    1    charge:   14.4618    magn:    2.3023    constr:    0.0000

     total cpu time spent up to now is       18.0 secs

     total energy              =    -329.25927412 Ry
     Harris-Foulkes estimate   =    -329.25902681 Ry
     estimated scf accuracy    <       0.00001080 Ry

     total magnetization       =     2.27 Bohr mag/cell
     absolute magnetization    =     2.41 Bohr mag/cell

     iteration #  9     ecut=    50.00 Ry     beta=0.70
     Davidson diagonalization with overlap
     ethr =  6.75E-08,  avg # of iterations =  3.0

     negative rho (up, down):  0.000E+00 2.150E-04

     Magnetic moment per site:
     atom:    1    charge:   14.4620    magn:    2.2895    constr:    0.0000

     total cpu time spent up to now is       20.1 secs

     total energy              =    -329.25943252 Ry
     Harris-Foulkes estimate   =    -329.25934644 Ry
     estimated scf accuracy    <       0.00000955 Ry

     total magnetization       =     2.23 Bohr mag/cell
     absolute magnetization    =     2.37 Bohr mag/cell

     iteration # 10     ecut=    50.00 Ry     beta=0.70
     Davidson diagonalization with overlap
     ethr =  5.97E-08,  avg # of iterations =  2.0

     negative rho (up, down):  0.000E+00 2.111E-04

     Magnetic moment per site:
     atom:    1    charge:   14.4620    magn:    2.2740    constr:    0.0000

     total cpu time spent up to now is       22.1 secs

     total energy              =    -329.25946264 Ry
     Harris-Foulkes estimate   =    -329.25944483 Ry
     estimated scf accuracy    <       0.00000854 Ry

     total magnetization       =     2.22 Bohr mag/cell
     absolute magnetization    =     2.36 Bohr mag/cell

     iteration # 11     ecut=    50.00 Ry     beta=0.70
     Davidson diagonalization with overlap
     ethr =  5.34E-08,  avg # of iterations =  1.5

     negative rho (up, down):  0.000E+00 2.062E-04

     Magnetic moment per site:
     atom:    1    charge:   14.4619    magn:    2.2568    constr:    0.0000

     total cpu time spent up to now is       23.8 secs

     total energy              =    -329.25947538 Ry
     Harris-Foulkes estimate   =    -329.25947186 Ry
     estimated scf accuracy    <       0.00000477 Ry

     total magnetization       =     2.21 Bohr mag/cell
     absolute magnetization    =     2.34 Bohr mag/cell

     iteration # 12     ecut=    50.00 Ry     beta=0.70
     Davidson diagonalization with overlap
     ethr =  2.98E-08,  avg # of iterations =  2.0

     negative rho (up, down):  0.000E+00 2.037E-04

     Magnetic moment per site:
     atom:    1    charge:   14.4617    magn:    2.2494    constr:    0.0000

     total cpu time spent up to now is       25.6 secs

     total energy              =    -329.25948796 Ry
     Harris-Foulkes estimate   =    -329.25948418 Ry
     estimated scf accuracy    <       0.00000103 Ry

     total magnetization       =     2.20 Bohr mag/cell
     absolute magnetization    =     2.33 Bohr mag/cell

     iteration # 13     ecut=    50.00 Ry     beta=0.70
     Davidson diagonalization with overlap
     ethr =  6.41E-09,  avg # of iterations =  2.1

     negative rho (up, down):  0.000E+00 2.008E-04

     Magnetic moment per site:
     atom:    1    charge:   14.4617    magn:    2.2391    constr:    0.0000

     total cpu time spent up to now is       27.5 secs

     total energy              =    -329.25948806 Ry
     Harris-Foulkes estimate   =    -329.25949019 Ry
     estimated scf accuracy    <       0.00000030 Ry

     total magnetization       =     2.19 Bohr mag/cell
     absolute magnetization    =     2.32 Bohr mag/cell

     iteration # 14     ecut=    50.00 Ry     beta=0.70
     Davidson diagonalization with overlap
     ethr =  1.89E-09,  avg # of iterations =  2.4

     negative rho (up, down):  0.000E+00 2.014E-04

     Magnetic moment per site:
     atom:    1    charge:   14.4617    magn:    2.2406    constr:    0.0000

     total cpu time spent up to now is       29.5 secs

     total energy              =    -329.25949359 Ry
     Harris-Foulkes estimate   =    -329.25949100 Ry
     estimated scf accuracy    <       0.00000007 Ry

     total magnetization       =     2.18 Bohr mag/cell
     absolute magnetization    =     2.32 Bohr mag/cell

     iteration # 15     ecut=    50.00 Ry     beta=0.70
     Davidson diagonalization with overlap
     ethr =  4.25E-10,  avg # of iterations =  2.0

     negative rho (up, down):  0.000E+00 2.014E-04

     Magnetic moment per site:
     atom:    1    charge:   14.4617    magn:    2.2404    constr:    0.0000

     total cpu time spent up to now is       31.4 secs

     End of self-consistent calculation

 ------ SPIN UP ------------


          k = 0.0000 0.0000 0.0000 (   531 PWs)   bands (ev):

   -71.4814 -37.3372 -37.3372 -37.3372   8.4670  14.4586  14.4586  14.4586
    15.3067  15.3067  40.6282  40.6282

          k = 0.0000-0.1111 0.1111 (   503 PWs)   bands (ev):

   -71.4738 -37.3731 -37.3486 -37.3356   8.9487  14.3379  14.4356  14.7022
    15.2116  15.3170  37.7076  39.7260

          k = 0.0000-0.2222 0.2222 (   499 PWs)   bands (ev):

   -71.4572 -37.4665 -37.3799 -37.3357  10.2464  14.0412  14.2801  15.2026
    15.3527  15.3576  32.7060  37.4362

          k = 0.0000-0.3333 0.3333 (   499 PWs)   bands (ev):

   -71.4385 -37.5710 -37.4158 -37.3361  11.6197  13.7177  14.6317  15.4109
    15.4193  16.1857  27.7631  35.4043

          k = 0.0000-0.4444 0.4444 (   496 PWs)   bands (ev):

   -71.4262 -37.6388 -37.4385 -37.3359  11.9729  13.5140  15.4021  15.4596
    16.5851  16.7889  23.8854  34.2910

          k =-0.1111-0.1111 0.2222 (   501 PWs)   bands (ev):

   -71.4622 -37.4372 -37.3623 -37.3453   9.8478  14.1922  14.2237  15.1107
    15.2096  15.3842  35.0358  36.1357

          k =-0.1111-0.2222 0.3333 (   497 PWs)   bands (ev):

   -71.4445 -37.5282 -37.4001 -37.3486  11.3126  13.8590  14.0737  15.1936
    15.4813  16.1080  30.3957  33.7053

          k =-0.1111-0.3333 0.4444 (   499 PWs)   bands (ev):

   -71.4291 -37.6058 -37.4379 -37.3495  12.1548  13.6138  14.6199  15.4033
    15.7326  17.3355  25.7850  32.2909

          k =-0.1111 0.5556-0.4444 (   505 PWs)   bands (ev):

   -71.4232 -37.6365 -37.4533 -37.3499  12.2080  13.5247  15.0012  15.4191
    16.1475  18.5419  23.2292  31.7710

          k =-0.2222-0.2222 0.4444 (   497 PWs)   bands (ev):

   -71.4302 -37.5797 -37.4412 -37.3641  12.4732  13.5346  14.0332  15.2831
    15.6440  17.5631  28.3962  29.0500

          k =-0.2222 0.6667-0.4444 (   497 PWs)   bands (ev):

   -71.4208 -37.6002 -37.4857 -37.3690  12.7837  13.5198  14.1631  15.4536
    15.8437  19.7920  24.4648  27.7969

          k =-0.3333 0.6667-0.3333 (   499 PWs)   bands (ev):

   -71.4176 -37.5521 -37.5521 -37.3760  13.2009  13.6293  13.6293  15.6893
    15.6893  22.8732  22.8732  25.1314

          k = 0.0000 0.0000 0.2222 (   498 PWs)   bands (ev):

   -71.4673 -37.3826 -37.3609 -37.3609   9.4101  14.4727  14.4727  14.7047
    14.9241  15.4562  36.9833  38.7294

          k = 0.0000-0.1111 0.3333 (   493 PWs)   bands (ev):

   -71.4511 -37.4645 -37.3926 -37.3656  10.6480  14.2433  14.2716  14.8764
    15.3004  15.6129  33.0355  36.3458

          k = 0.0000-0.2222 0.4444 (   496 PWs)   bands (ev):

   -71.4331 -37.5645 -37.4293 -37.3640  11.9300  13.9810  14.0452  15.2322
    16.1326  16.1393  28.0874  34.6313

          k = 0.0000-0.3333 0.5556 (   499 PWs)   bands (ev):

   -71.4213 -37.6298 -37.4534 -37.3622  12.2263  13.7947  14.3728  15.2840
    16.7576  17.8846  24.0554  33.4121

          k =-0.1111-0.1111 0.4444 (   497 PWs)   bands (ev):

   -71.4348 -37.5301 -37.4310 -37.3835  11.8739  13.7532  14.3497  14.9547
    15.7477  16.2896  30.7877  31.4880

          k =-0.1111-0.2222 0.5556 (   495 PWs)   bands (ev):

   -71.4201 -37.5929 -37.4717 -37.3857  12.5897  13.5342  14.1755  15.2539
    16.2043  18.1063  26.3564  29.7510

          k =-0.1111 0.6667-0.3333 (   491 PWs)   bands (ev):

   -71.4142 -37.6176 -37.4884 -37.3851  12.5954  13.8022  13.9245  15.3231
    16.5192  20.0645  23.4304  29.2127

          k =-0.2222 0.2222 0.2222 (   501 PWs)   bands (ev):

   -71.4492 -37.5144 -37.3653 -37.3653  11.0534  13.8636  13.8636  15.3178
    15.3178  16.1391  32.8858  32.8858

          k =-0.2222 0.7778-0.3333 (   493 PWs)   bands (ev):

   -71.4116 -37.5876 -37.5304 -37.3927  13.1694  13.1707  13.8731  15.6681
    16.1391  21.0249  24.7989  25.9227

          k =-0.3333 0.3333 0.2222 (   499 PWs)   bands (ev):

   -71.4342 -37.5769 -37.4135 -37.3689  12.3875  13.5862  13.8404  15.3878
    15.4306  17.4664  28.3447  31.3125

          k = 0.5556-0.5556 0.2222 (   501 PWs)   bands (ev):

   -71.4245 -37.6071 -37.4555 -37.3712  12.5961  13.4409  14.7167  15.4747
    15.4767  19.3181  24.2728  30.4759

          k = 0.5556-0.6667 0.3333 (   500 PWs)   bands (ev):

   -71.4251 -37.5832 -37.4533 -37.3948  13.1160  13.4676  13.8719  15.4615
    15.5097  19.5374  26.7066  27.3842

          k = 0.4444-0.5556 0.3333 (   496 PWs)   bands (ev):

   -71.4213 -37.5657 -37.4923 -37.4006  13.1138  13.4865  14.1187  15.5152
    15.5369  21.8150  23.7535  26.6659

          k = 0.0000 0.0000 0.4444 (   494 PWs)   bands (ev):

   -71.4365 -37.4754 -37.4265 -37.4265  11.6359  13.9405  14.7221  14.7221
    15.3382  16.0700  33.8514  33.8516

          k = 0.0000-0.1111 0.5556 (   498 PWs)   bands (ev):

   -71.4198 -37.5486 -37.4650 -37.4351  12.4802  13.3759  14.6908  15.0732
    16.0362  17.2839  29.0246  31.6863

          k = 0.0000-0.2222 0.6667 (   498 PWs)   bands (ev):

   -71.4089 -37.6057 -37.4896 -37.4309  12.5984  13.2542  14.5728  15.2023
    16.6791  19.7934  24.6817  30.4126

          k =-0.1111-0.1111 0.6667 (   495 PWs)   bands (ev):

   -71.4065 -37.5786 -37.5117 -37.4486  12.7461  12.9034  14.7363  15.5449
    16.3528  19.6031  27.2832  27.7622

          k =-0.1111 0.7778-0.2222 (   490 PWs)   bands (ev):

   -71.4012 -37.5902 -37.5358 -37.4479  12.6673  12.8654  14.6471  15.8028
    16.5298  22.3172  24.0166  26.9804

          k = 0.5556-0.5556 0.4444 (   496 PWs)   bands (ev):

   -71.4215 -37.5399 -37.4600 -37.4600  13.4981  13.4981  13.7720  15.4968
    15.4968  22.2866  25.8511  25.8511

          k = 0.0000 0.0000 0.6667 (   490 PWs)   bands (ev):

   -71.4043 -37.5411 -37.5041 -37.5041  12.5600  12.8221  15.4797  15.4797
    16.0761  19.0728  29.3435  29.3435

          k = 0.0000-0.1111 0.7778 (   489 PWs)   bands (ev):

   -71.3944 -37.5780 -37.5302 -37.5078  12.4184  12.4888  15.6267  15.8252
    16.5918  21.8978  25.8501  27.9164

          k =-0.1111 0.8889-0.1111 (   484 PWs)   bands (ev):

   -71.3894 -37.5661 -37.5661 -37.5139  12.2944  12.2944  15.7227  16.4747
    16.4747  24.7935  24.7935  25.6782

          k = 0.0000 0.0000 0.8889 (   486 PWs)   bands (ev):

   -71.3850 -37.5619 -37.5570 -37.5570  12.1043  12.1053  16.4477  16.4477
    16.5668  24.3369  26.3521  26.3521

 ------ SPIN DOWN ----------


          k = 0.0000 0.0000 0.0000 (   531 PWs)   bands (ev):

   -68.8397 -34.7444 -34.7444 -34.7444   8.6145  16.1771  16.1771  16.1771
    18.3805  18.3805  40.3376  40.3376

          k = 0.0000-0.1111 0.1111 (   503 PWs)   bands (ev):

   -68.8317 -34.7847 -34.7573 -34.7430   9.0994  16.0326  16.1459  16.4420
    18.2293  18.3923  37.8460  39.6382

          k = 0.0000-0.2222 0.2222 (   499 PWs)   bands (ev):

   -68.8136 -34.8890 -34.7918 -34.7432  10.4386  15.6799  15.9900  17.1598
    18.0254  18.4387  33.2323  37.5300

          k = 0.0000-0.3333 0.3333 (   499 PWs)   bands (ev):

   -68.7932 -35.0056 -34.8313 -34.7435  12.1667  15.2995  15.9658  18.0395
    18.0795  18.5224  28.5687  35.4868

          k = 0.0000-0.4444 0.4444 (   496 PWs)   bands (ev):

   -68.7797 -35.0810 -34.8566 -34.7434  13.1434  15.0619  16.8322  18.1265
    18.5966  18.7616  25.0618  34.3315

          k =-0.1111-0.1111 0.2222 (   501 PWs)   bands (ev):

   -68.8191 -34.8563 -34.7725 -34.7536  10.0151  15.8538  15.9377  16.9815
    18.0140  18.4571  35.3866  36.4621

          k =-0.1111-0.2222 0.3333 (   497 PWs)   bands (ev):

   -68.7998 -34.9578 -34.8142 -34.7574  11.6166  15.4882  15.7055  17.8802
    17.9220  18.5721  31.0375  34.1132

          k =-0.1111-0.3333 0.4444 (   499 PWs)   bands (ev):

   -68.7829 -35.0442 -34.8559 -34.7585  13.0911  15.1706  15.9091  18.0256
    18.5434  19.0851  26.7135  32.6987

          k =-0.1111 0.5556-0.4444 (   505 PWs)   bands (ev):

   -68.7765 -35.0782 -34.8729 -34.7589  13.4885  15.0553  16.4299  18.1040
    18.6342  19.8139  24.4852  32.1693

          k =-0.2222-0.2222 0.4444 (   497 PWs)   bands (ev):

   -68.7841 -35.0150 -34.8601 -34.7744  13.1485  15.2260  15.4336  17.9165
    18.4971  19.3400  29.1389  29.6591

          k =-0.2222 0.6667-0.4444 (   497 PWs)   bands (ev):

   -68.7739 -35.0376 -34.9095 -34.7801  14.0532  15.0691  15.5572  18.0809
    18.5055  21.0938  25.4503  28.4466

          k =-0.3333 0.6667-0.3333 (   499 PWs)   bands (ev):

   -68.7704 -34.9838 -34.9838 -34.7876  14.5725  15.1460  15.1460  18.2963
    18.2963  23.8769  23.8769  25.9658

          k = 0.0000 0.0000 0.2222 (   498 PWs)   bands (ev):

   -68.8246 -34.7959 -34.7709 -34.7709   9.5681  16.1636  16.1636  16.4481
    17.8550  18.5646  37.1440  38.9390

          k = 0.0000-0.1111 0.3333 (   493 PWs)   bands (ev):

   -68.8071 -34.8870 -34.8060 -34.7763  10.8677  15.9226  16.0786  17.0957
    17.4663  18.6970  33.5718  36.6435

          k = 0.0000-0.2222 0.4444 (   496 PWs)   bands (ev):

   -68.7873 -34.9983 -34.8465 -34.7746  12.5396  15.5812  15.8506  17.5826
    18.0264  18.8804  28.8795  34.9977

          k = 0.0000-0.3333 0.5556 (   499 PWs)   bands (ev):

   -68.7745 -35.0707 -34.8730 -34.7728  13.4946  15.3638  16.1034  17.7847
    18.7264  19.5671  25.1857  33.9150

          k =-0.1111-0.1111 0.4444 (   497 PWs)   bands (ev):

   -68.7892 -34.9599 -34.8485 -34.7962  12.3271  15.7445  15.9398  17.2341
    17.7869  18.9463  31.4835  32.0338

          k =-0.1111-0.2222 0.5556 (   495 PWs)   bands (ev):

   -68.7732 -35.0295 -34.8936 -34.7986  13.6943  15.3790  15.7889  17.5117
    18.3915  19.9087  27.2327  30.3690

          k =-0.1111 0.6667-0.3333 (   491 PWs)   bands (ev):

   -68.7668 -35.0570 -34.9122 -34.7980  14.0984  15.5231  15.5780  17.6530
    18.6108  21.3075  24.5967  29.8209

          k =-0.2222 0.2222 0.2222 (   501 PWs)   bands (ev):

   -68.8048 -34.9422 -34.7759 -34.7759  11.2690  15.5022  15.5022  17.9242
    18.2883  18.2883  33.3168  33.3168

          k =-0.2222 0.7778-0.3333 (   493 PWs)   bands (ev):

   -68.7639 -35.0233 -34.9592 -34.8061  14.6684  15.0277  15.5077  17.8432
    18.3216  22.2759  25.7751  26.6687

          k =-0.3333 0.3333 0.2222 (   499 PWs)   bands (ev):

   -68.7884 -35.0118 -34.8294 -34.7799  12.9194  15.1246  15.2824  18.2563
    18.4999  19.1381  29.0401  31.7459

          k = 0.5556-0.5556 0.2222 (   501 PWs)   bands (ev):

   -68.7779 -35.0455 -34.8758 -34.7825  13.7950  14.9168  15.7289  18.3072
    18.6114  20.5557  25.2866  30.8888

          k = 0.5556-0.6667 0.3333 (   500 PWs)   bands (ev):

   -68.7785 -35.0189 -34.8737 -34.8087  14.1641  14.9315  15.0606  18.3921
    18.5799  20.8742  27.4368  28.0424

          k = 0.4444-0.5556 0.3333 (   496 PWs)   bands (ev):

   -68.7744 -34.9993 -34.9175 -34.8152  14.4151  14.8719  15.3000  18.4590
    18.5965  22.7544  24.7321  27.3375

          k = 0.0000 0.0000 0.4444 (   494 PWs)   bands (ev):

   -68.7910 -34.8997 -34.8435 -34.8435  12.0221  16.3828  16.3828  16.5303
    17.1485  18.9626  34.3390  34.3712

          k = 0.0000-0.1111 0.5556 (   498 PWs)   bands (ev):

   -68.7729 -34.9804 -34.8860 -34.8533  13.4087  15.6187  16.3439  16.9659
    17.9116  19.4979  29.7504  32.2084

          k = 0.0000-0.2222 0.6667 (   498 PWs)   bands (ev):

   -68.7610 -35.0434 -34.9131 -34.8488  14.2259  15.1902  16.2094  17.2509
    18.6383  21.1597  25.6549  30.8947

          k =-0.1111-0.1111 0.6667 (   495 PWs)   bands (ev):

   -68.7585 -35.0132 -34.9379 -34.8683  14.2855  15.0372  16.4187  17.3988
    18.3191  21.0443  28.0909  28.3700

          k =-0.1111 0.7778-0.2222 (   490 PWs)   bands (ev):

   -68.7526 -35.0258 -34.9648 -34.8675  14.6175  14.8055  16.2599  17.7195
    18.5011  23.3450  24.9665  27.6320

          k = 0.5556-0.5556 0.4444 (   496 PWs)   bands (ev):

   -68.7747 -34.9704 -34.8816 -34.8816  14.8201  14.8201  14.8859  18.6221
    18.6221  23.2410  26.5499  26.5499

          k = 0.0000 0.0000 0.6667 (   490 PWs)   bands (ev):

   -68.7562 -34.9720 -34.9294 -34.9294  14.0870  15.0787  17.1981  17.1981
    17.9688  20.5817  29.8243  29.8243

          k = 0.0000-0.1111 0.7778 (   489 PWs)   bands (ev):

   -68.7453 -35.0121 -34.9582 -34.9338  14.3477  14.5701  17.3868  17.6175
    18.5409  22.8591  26.5137  28.3249

          k =-0.1111 0.8889-0.1111 (   484 PWs)   bands (ev):

   -68.7400 -34.9984 -34.9984 -34.9406  14.3325  14.3325  17.4747  18.3949
    18.3949  25.4571  25.4571  26.1741

          k = 0.0000 0.0000 0.8889 (   486 PWs)   bands (ev):

   -68.7352 -34.9938 -34.9879 -34.9879  14.1249  14.1769  18.3516  18.3516
    18.5172  24.8616  26.6410  26.6410

     the Fermi energy is    16.4582 ev

!    total energy              =    -329.25949385 Ry
     Harris-Foulkes estimate   =    -329.25949362 Ry
     estimated scf accuracy    <          3.8E-09 Ry

     total all-electron energy =     -2545.556029 Ry

     The total energy is the sum of the following terms:

     one-electron contribution =    -117.05017241 Ry
     hartree contribution      =      68.10612857 Ry
     xc contribution           =     -34.77903847 Ry
     ewald contribution        =    -169.38977512 Ry
     one-center paw contrib.   =     -76.14863167 Ry
     smearing contrib. (-TS)   =       0.00199525 Ry

     total magnetization       =     2.18 Bohr mag/cell
     absolute magnetization    =     2.32 Bohr mag/cell

     convergence has been achieved in  15 iterations

     Forces acting on atoms (Ry/au):


     negative rho (up, down):  0.000E+00 2.014E-04
     atom    1 type  1   force =     0.00000000    0.00000000    0.00000000

     Total force =     0.000000     Total SCF correction =     0.000000


     entering subroutine stress ...


     negative rho (up, down):  0.000E+00 2.014E-04
          total   stress  (Ry/bohr**3)                   (kbar)     P= -219.60
  -0.00149284   0.00000000  -0.00000000       -219.60      0.00     -0.00
   0.00000000  -0.00149284   0.00000000          0.00   -219.60      0.00
  -0.00000000   0.00000000  -0.00149284         -0.00      0.00   -219.60


     Writing output data file Fe_bcc.save

     init_run     :      1.56s CPU      1.63s WALL (       1 calls)
     electrons    :     29.06s CPU     29.41s WALL (       1 calls)
     forces       :      0.13s CPU      0.14s WALL (       1 calls)
     stress       :      0.47s CPU      0.48s WALL (       1 calls)

     Called by init_run:
     wfcinit      :      0.55s CPU      0.56s WALL (       1 calls)
     potinit      :      0.47s CPU      0.49s WALL (       1 calls)

     Called by electrons:
     c_bands      :     18.02s CPU     18.13s WALL (      15 calls)
     sum_band     :      3.41s CPU      3.47s WALL (      15 calls)
     v_of_rho     :      0.35s CPU      0.36s WALL (      16 calls)
     newd         :      0.24s CPU      0.25s WALL (      16 calls)
     mix_rho      :      0.05s CPU      0.05s WALL (      15 calls)

     Called by c_bands:
     init_us_2    :      0.41s CPU      0.41s WALL (    2310 calls)
     cegterg      :     17.23s CPU     17.32s WALL (    1050 calls)

     Called by *egterg:
     h_psi        :     14.69s CPU     14.84s WALL (    3314 calls)
     s_psi        :      0.39s CPU      0.32s WALL (    3314 calls)
     g_psi        :      0.09s CPU      0.09s WALL (    2194 calls)
     cdiaghg      :      0.94s CPU      0.95s WALL (    3244 calls)

     Called by h_psi:
     add_vuspsi   :      0.39s CPU      0.34s WALL (    3314 calls)

     General routines
     calbec       :      0.44s CPU      0.44s WALL (    4504 calls)
     fft          :      0.18s CPU      0.18s WALL (     530 calls)
     ffts         :      0.02s CPU      0.02s WALL (      62 calls)
     fftw         :     15.03s CPU     15.21s WALL (   74976 calls)
     interpolate  :      0.04s CPU      0.05s WALL (      62 calls)
     davcio       :      0.00s CPU      0.00s WALL (      70 calls)


     PAW routines
     PAW_pot      :      7.44s CPU      7.61s WALL (      16 calls)
     PAW_symme    :      0.02s CPU      0.02s WALL (      31 calls)

     PWSCF        :    31.69s CPU        32.19s WALL


   This run was terminated on:  14:46:17  12May2015            

=------------------------------------------------------------------------------=
   JOB DONE.
=------------------------------------------------------------------------------=
