
     Program PWSCF v.5.1.2 starts on 12May2015 at 14:39: 4 

     This program is part of the open-source Quantum ESPRESSO suite
     for quantum simulation of materials; please cite
         "P. Giannozzi et al., J. Phys.:Condens. Matter 21 395502 (2009);
          URL http://www.quantum-espresso.org", 
     in publications or presentations arising from this work. More details at
     http://www.quantum-espresso.org/quote

     Serial version
     Reading input from Fe_bcc_5.2_9.pw.in

     Current dimensions of program PWSCF are:
     Max number of different atomic species (ntypx) = 10
     Max number of k-points (npk) =  40000
     Max angular momentum in pseudopotentials (lmaxx) =  3
               file Fe.pbe-spn-kjpaw_psl.0.2.1.UPF: wavefunction(s)  3D renormalized

     G-vector sticks info
     --------------------
     sticks:   dense  smooth     PW     G-vecs:    dense   smooth      PW
     Sum         383     307     99                 4729     3367     627

     Generating pointlists ...
     new r_m :   0.3572 (alat units)  1.8576 (a.u.) for type    1


     bravais-lattice index     =            3
     lattice parameter (alat)  =       5.2000  a.u.
     unit-cell volume          =      70.3040 (a.u.)^3
     number of atoms/cell      =            1
     number of atomic types    =            1
     number of electrons       =        16.00
     number of Kohn-Sham states=           12
     kinetic-energy cutoff     =      50.0000  Ry
     charge density cutoff     =     250.0000  Ry
     convergence threshold     =      1.0E-08
     mixing beta               =       0.7000
     number of iterations used =            8  plain     mixing
     Exchange-correlation      =  SLA  PW   PBX  PBC ( 1  4  3  4 0 0)

     celldm(1)=   5.200000  celldm(2)=   0.000000  celldm(3)=   0.000000
     celldm(4)=   0.000000  celldm(5)=   0.000000  celldm(6)=   0.000000

     crystal axes: (cart. coord. in units of alat)
               a(1) = (   0.500000   0.500000   0.500000 )  
               a(2) = (  -0.500000   0.500000   0.500000 )  
               a(3) = (  -0.500000  -0.500000   0.500000 )  

     reciprocal axes: (cart. coord. in units 2 pi/alat)
               b(1) = (  1.000000  0.000000  1.000000 )  
               b(2) = ( -1.000000  1.000000  0.000000 )  
               b(3) = (  0.000000 -1.000000  1.000000 )  


     PseudoPot. # 1 for Fe read from file:
     ./Fe.pbe-spn-kjpaw_psl.0.2.1.UPF
     MD5 check sum: a0a08122d52b112de96d1da1d7dd020f
     Pseudo is Projector augmented-wave + core cor, Zval = 16.0
     Generated using "atomic" code by A. Dal Corso  v.5.0.2 svn rev. 9415
     Shape of augmentation charge: PSQ
     Using radial grid of 1191 points,  6 beta functions with: 
                l(1) =   0
                l(2) =   0
                l(3) =   1
                l(4) =   1
                l(5) =   2
                l(6) =   2
     Q(r) pseudized with 0 coefficients 


     atomic species   valence    mass     pseudopotential
        Fe            16.00    55.85000     Fe( 1.00)

     Starting magnetic structure 
     atomic species   magnetization
        Fe           0.700

     48 Sym. Ops., with inversion, found



   Cartesian axes

     site n.     atom                  positions (alat units)
         1           Fe  tau(   1) = (   0.0000000   0.0000000   0.0000000  )

     number of k points=    70  Marzari-Vanderbilt smearing, width (Ry)=  0.0250
                       cart. coord. in units 2pi/alat
        k(    1) = (   0.0000000   0.0000000   0.0000000), wk =   0.0013717
        k(    2) = (   0.0000000  -0.1111111   0.1111111), wk =   0.0164609
        k(    3) = (   0.0000000  -0.2222222   0.2222222), wk =   0.0164609
        k(    4) = (   0.0000000  -0.3333333   0.3333333), wk =   0.0164609
        k(    5) = (   0.0000000  -0.4444444   0.4444444), wk =   0.0164609
        k(    6) = (  -0.1111111  -0.1111111   0.2222222), wk =   0.0329218
        k(    7) = (  -0.1111111  -0.2222222   0.3333333), wk =   0.0658436
        k(    8) = (  -0.1111111  -0.3333333   0.4444444), wk =   0.0658436
        k(    9) = (  -0.1111111   0.5555556  -0.4444444), wk =   0.0329218
        k(   10) = (  -0.2222222  -0.2222222   0.4444444), wk =   0.0329218
        k(   11) = (  -0.2222222   0.6666667  -0.4444444), wk =   0.0658436
        k(   12) = (  -0.3333333   0.6666667  -0.3333333), wk =   0.0109739
        k(   13) = (   0.0000000   0.0000000   0.2222222), wk =   0.0082305
        k(   14) = (   0.0000000  -0.1111111   0.3333333), wk =   0.0329218
        k(   15) = (   0.0000000  -0.2222222   0.4444444), wk =   0.0329218
        k(   16) = (   0.0000000  -0.3333333   0.5555556), wk =   0.0329218
        k(   17) = (  -0.1111111  -0.1111111   0.4444444), wk =   0.0329218
        k(   18) = (  -0.1111111  -0.2222222   0.5555556), wk =   0.0658436
        k(   19) = (  -0.1111111   0.6666667  -0.3333333), wk =   0.0329218
        k(   20) = (  -0.2222222   0.2222222   0.2222222), wk =   0.0109739
        k(   21) = (  -0.2222222   0.7777778  -0.3333333), wk =   0.0329218
        k(   22) = (  -0.3333333   0.3333333   0.2222222), wk =   0.0329218
        k(   23) = (   0.5555556  -0.5555556   0.2222222), wk =   0.0329218
        k(   24) = (   0.5555556  -0.6666667   0.3333333), wk =   0.0329218
        k(   25) = (   0.4444444  -0.5555556   0.3333333), wk =   0.0329218
        k(   26) = (   0.0000000   0.0000000   0.4444444), wk =   0.0082305
        k(   27) = (   0.0000000  -0.1111111   0.5555556), wk =   0.0329218
        k(   28) = (   0.0000000  -0.2222222   0.6666667), wk =   0.0329218
        k(   29) = (  -0.1111111  -0.1111111   0.6666667), wk =   0.0329218
        k(   30) = (  -0.1111111   0.7777778  -0.2222222), wk =   0.0329218
        k(   31) = (   0.5555556  -0.5555556   0.4444444), wk =   0.0109739
        k(   32) = (   0.0000000   0.0000000   0.6666667), wk =   0.0082305
        k(   33) = (   0.0000000  -0.1111111   0.7777778), wk =   0.0329218
        k(   34) = (  -0.1111111   0.8888889  -0.1111111), wk =   0.0109739
        k(   35) = (   0.0000000   0.0000000   0.8888889), wk =   0.0082305
        k(   36) = (   0.0000000   0.0000000   0.0000000), wk =   0.0013717
        k(   37) = (   0.0000000  -0.1111111   0.1111111), wk =   0.0164609
        k(   38) = (   0.0000000  -0.2222222   0.2222222), wk =   0.0164609
        k(   39) = (   0.0000000  -0.3333333   0.3333333), wk =   0.0164609
        k(   40) = (   0.0000000  -0.4444444   0.4444444), wk =   0.0164609
        k(   41) = (  -0.1111111  -0.1111111   0.2222222), wk =   0.0329218
        k(   42) = (  -0.1111111  -0.2222222   0.3333333), wk =   0.0658436
        k(   43) = (  -0.1111111  -0.3333333   0.4444444), wk =   0.0658436
        k(   44) = (  -0.1111111   0.5555556  -0.4444444), wk =   0.0329218
        k(   45) = (  -0.2222222  -0.2222222   0.4444444), wk =   0.0329218
        k(   46) = (  -0.2222222   0.6666667  -0.4444444), wk =   0.0658436
        k(   47) = (  -0.3333333   0.6666667  -0.3333333), wk =   0.0109739
        k(   48) = (   0.0000000   0.0000000   0.2222222), wk =   0.0082305
        k(   49) = (   0.0000000  -0.1111111   0.3333333), wk =   0.0329218
        k(   50) = (   0.0000000  -0.2222222   0.4444444), wk =   0.0329218
        k(   51) = (   0.0000000  -0.3333333   0.5555556), wk =   0.0329218
        k(   52) = (  -0.1111111  -0.1111111   0.4444444), wk =   0.0329218
        k(   53) = (  -0.1111111  -0.2222222   0.5555556), wk =   0.0658436
        k(   54) = (  -0.1111111   0.6666667  -0.3333333), wk =   0.0329218
        k(   55) = (  -0.2222222   0.2222222   0.2222222), wk =   0.0109739
        k(   56) = (  -0.2222222   0.7777778  -0.3333333), wk =   0.0329218
        k(   57) = (  -0.3333333   0.3333333   0.2222222), wk =   0.0329218
        k(   58) = (   0.5555556  -0.5555556   0.2222222), wk =   0.0329218
        k(   59) = (   0.5555556  -0.6666667   0.3333333), wk =   0.0329218
        k(   60) = (   0.4444444  -0.5555556   0.3333333), wk =   0.0329218
        k(   61) = (   0.0000000   0.0000000   0.4444444), wk =   0.0082305
        k(   62) = (   0.0000000  -0.1111111   0.5555556), wk =   0.0329218
        k(   63) = (   0.0000000  -0.2222222   0.6666667), wk =   0.0329218
        k(   64) = (  -0.1111111  -0.1111111   0.6666667), wk =   0.0329218
        k(   65) = (  -0.1111111   0.7777778  -0.2222222), wk =   0.0329218
        k(   66) = (   0.5555556  -0.5555556   0.4444444), wk =   0.0109739
        k(   67) = (   0.0000000   0.0000000   0.6666667), wk =   0.0082305
        k(   68) = (   0.0000000  -0.1111111   0.7777778), wk =   0.0329218
        k(   69) = (  -0.1111111   0.8888889  -0.1111111), wk =   0.0109739
        k(   70) = (   0.0000000   0.0000000   0.8888889), wk =   0.0082305

     Dense  grid:     4729 G-vectors     FFT dimensions: (  24,  24,  24)

     Smooth grid:     3367 G-vectors     FFT dimensions: (  24,  24,  24)

     Largest allocated arrays     est. size (Mb)     dimensions
        Kohn-Sham Wavefunctions         0.08 Mb     (     432,   12)
        NL pseudopotentials             0.12 Mb     (     432,   18)
        Each V/rho on FFT grid          0.42 Mb     (   13824,   2)
        Each G-vector array             0.04 Mb     (    4729)
        G-vector shells                 0.00 Mb     (      80)
     Largest temporary arrays     est. size (Mb)     dimensions
        Auxiliary wavefunctions         0.32 Mb     (     432,   48)
        Each subspace H/S matrix        0.04 Mb     (      48,   48)
        Each <psi_i|beta_j> matrix      0.00 Mb     (      18,   12)
        Arrays for rho mixing           1.69 Mb     (   13824,    8)

     Check: negative/imaginary core charge=   -0.000449    0.000000

     Initial potential from superposition of free atoms

     starting charge   15.99956, renormalised to   16.00000
     Starting wfc are   13 randomized atomic wfcs

     total cpu time spent up to now is        2.1 secs

     Self-consistent Calculation

     iteration #  1     ecut=    50.00 Ry     beta=0.70
     Davidson diagonalization with overlap
     ethr =  1.00E-02,  avg # of iterations =  3.4

     negative rho (up, down):  0.000E+00 2.587E-04

     Magnetic moment per site:
     atom:    1    charge:   14.2199    magn:    5.5802    constr:    0.0000

     total cpu time spent up to now is        4.1 secs

     total energy              =    -328.97362028 Ry
     Harris-Foulkes estimate   =    -328.00467627 Ry
     estimated scf accuracy    <       1.56015036 Ry

     total magnetization       =     3.73 Bohr mag/cell
     absolute magnetization    =     3.75 Bohr mag/cell

     iteration #  2     ecut=    50.00 Ry     beta=0.70
     Davidson diagonalization with overlap
     ethr =  9.75E-03,  avg # of iterations =  1.1

     negative rho (up, down):  0.000E+00 2.752E-04

     Magnetic moment per site:
     atom:    1    charge:   14.4274    magn:    3.1781    constr:    0.0000

     total cpu time spent up to now is        5.9 secs

     total energy              =    -329.17498428 Ry
     Harris-Foulkes estimate   =    -329.07794616 Ry
     estimated scf accuracy    <       0.31685240 Ry

     total magnetization       =     2.93 Bohr mag/cell
     absolute magnetization    =     3.07 Bohr mag/cell

     iteration #  3     ecut=    50.00 Ry     beta=0.70
     Davidson diagonalization with overlap
     ethr =  1.98E-03,  avg # of iterations =  2.2

     negative rho (up, down):  0.000E+00 2.566E-04

     Magnetic moment per site:
     atom:    1    charge:   14.3134    magn:    2.3052    constr:    0.0000

     total cpu time spent up to now is        7.8 secs

     total energy              =    -329.19223944 Ry
     Harris-Foulkes estimate   =    -329.32481486 Ry
     estimated scf accuracy    <       0.38693995 Ry

     total magnetization       =     2.24 Bohr mag/cell
     absolute magnetization    =     2.37 Bohr mag/cell

     iteration #  4     ecut=    50.00 Ry     beta=0.70
     Davidson diagonalization with overlap
     ethr =  1.98E-03,  avg # of iterations =  2.1

     negative rho (up, down):  0.000E+00 9.455E-05

     Magnetic moment per site:
     atom:    1    charge:   14.3357    magn:    1.9720    constr:    0.0000

     total cpu time spent up to now is        9.7 secs

     total energy              =    -329.25418285 Ry
     Harris-Foulkes estimate   =    -329.25306418 Ry
     estimated scf accuracy    <       0.00332317 Ry

     total magnetization       =     2.09 Bohr mag/cell
     absolute magnetization    =     2.24 Bohr mag/cell

     iteration #  5     ecut=    50.00 Ry     beta=0.70
     Davidson diagonalization with overlap
     ethr =  2.08E-05,  avg # of iterations =  3.2

     negative rho (up, down):  0.000E+00 1.098E-04

     Magnetic moment per site:
     atom:    1    charge:   14.3219    magn:    2.1454    constr:    0.0000

     total cpu time spent up to now is       11.8 secs

     total energy              =    -329.25764423 Ry
     Harris-Foulkes estimate   =    -329.25775104 Ry
     estimated scf accuracy    <       0.00071159 Ry

     total magnetization       =     2.02 Bohr mag/cell
     absolute magnetization    =     2.12 Bohr mag/cell

     iteration #  6     ecut=    50.00 Ry     beta=0.70
     Davidson diagonalization with overlap
     ethr =  4.45E-06,  avg # of iterations =  2.6

     negative rho (up, down):  0.000E+00 6.816E-05

     Magnetic moment per site:
     atom:    1    charge:   14.3225    magn:    2.0500    constr:    0.0000

     total cpu time spent up to now is       13.8 secs

     total energy              =    -329.25803633 Ry
     Harris-Foulkes estimate   =    -329.25801093 Ry
     estimated scf accuracy    <       0.00072104 Ry

     total magnetization       =     2.04 Bohr mag/cell
     absolute magnetization    =     2.14 Bohr mag/cell

     iteration #  7     ecut=    50.00 Ry     beta=0.70
     Davidson diagonalization with overlap
     ethr =  4.45E-06,  avg # of iterations =  1.5

     negative rho (up, down):  0.000E+00 8.012E-05

     Magnetic moment per site:
     atom:    1    charge:   14.3243    magn:    2.0676    constr:    0.0000

     total cpu time spent up to now is       15.6 secs

     total energy              =    -329.25820668 Ry
     Harris-Foulkes estimate   =    -329.25819699 Ry
     estimated scf accuracy    <       0.00002349 Ry

     total magnetization       =     2.03 Bohr mag/cell
     absolute magnetization    =     2.11 Bohr mag/cell

     iteration #  8     ecut=    50.00 Ry     beta=0.70
     Davidson diagonalization with overlap
     ethr =  1.47E-07,  avg # of iterations =  2.7

     negative rho (up, down):  0.000E+00 7.815E-05

     Magnetic moment per site:
     atom:    1    charge:   14.3248    magn:    2.0578    constr:    0.0000

     total cpu time spent up to now is       17.6 secs

     total energy              =    -329.25821984 Ry
     Harris-Foulkes estimate   =    -329.25821480 Ry
     estimated scf accuracy    <       0.00001104 Ry

     total magnetization       =     2.03 Bohr mag/cell
     absolute magnetization    =     2.12 Bohr mag/cell

     iteration #  9     ecut=    50.00 Ry     beta=0.70
     Davidson diagonalization with overlap
     ethr =  6.90E-08,  avg # of iterations =  1.5

     negative rho (up, down):  0.000E+00 7.652E-05

     Magnetic moment per site:
     atom:    1    charge:   14.3245    magn:    2.0530    constr:    0.0000

     total cpu time spent up to now is       19.2 secs

     total energy              =    -329.25822414 Ry
     Harris-Foulkes estimate   =    -329.25822310 Ry
     estimated scf accuracy    <       0.00000127 Ry

     total magnetization       =     2.03 Bohr mag/cell
     absolute magnetization    =     2.11 Bohr mag/cell

     iteration # 10     ecut=    50.00 Ry     beta=0.70
     Davidson diagonalization with overlap
     ethr =  7.95E-09,  avg # of iterations =  1.8

     negative rho (up, down):  0.000E+00 7.574E-05

     Magnetic moment per site:
     atom:    1    charge:   14.3244    magn:    2.0515    constr:    0.0000

     total cpu time spent up to now is       20.9 secs

     total energy              =    -329.25822457 Ry
     Harris-Foulkes estimate   =    -329.25822444 Ry
     estimated scf accuracy    <       0.00000010 Ry

     total magnetization       =     2.03 Bohr mag/cell
     absolute magnetization    =     2.11 Bohr mag/cell

     iteration # 11     ecut=    50.00 Ry     beta=0.70
     Davidson diagonalization with overlap
     ethr =  6.06E-10,  avg # of iterations =  2.1

     negative rho (up, down):  0.000E+00 7.580E-05

     Magnetic moment per site:
     atom:    1    charge:   14.3244    magn:    2.0518    constr:    0.0000

     total cpu time spent up to now is       22.8 secs

     total energy              =    -329.25822465 Ry
     Harris-Foulkes estimate   =    -329.25822463 Ry
     estimated scf accuracy    <       0.00000001 Ry

     total magnetization       =     2.03 Bohr mag/cell
     absolute magnetization    =     2.11 Bohr mag/cell

     iteration # 12     ecut=    50.00 Ry     beta=0.70
     Davidson diagonalization with overlap
     ethr =  6.38E-11,  avg # of iterations =  2.0

     negative rho (up, down):  0.000E+00 7.578E-05

     Magnetic moment per site:
     atom:    1    charge:   14.3244    magn:    2.0517    constr:    0.0000

     total cpu time spent up to now is       24.6 secs

     End of self-consistent calculation

 ------ SPIN UP ------------


          k = 0.0000 0.0000 0.0000 (   429 PWs)   bands (ev):

   -67.8327 -33.5476 -33.5476 -33.5476  11.2739  17.9368  17.9368  17.9368
    19.1622  19.1622  46.0666  46.0666

          k = 0.0000-0.1111 0.1111 (   407 PWs)   bands (ev):

   -67.8183 -33.6127 -33.5680 -33.5461  11.8210  17.7776  17.9057  18.2487
    19.0298  19.1763  43.3672  45.2883

          k = 0.0000-0.2222 0.2222 (   414 PWs)   bands (ev):

   -67.7850 -33.7797 -33.6232 -33.5465  13.2600  17.3888  17.7209  18.9914
    19.0890  19.2261  38.4253  43.0206

          k = 0.0000-0.3333 0.3333 (   418 PWs)   bands (ev):

   -67.7467 -33.9668 -33.6848 -33.5466  14.6382  16.9691  18.2044  19.2372
    19.3092  20.1564  33.2789  40.8160

          k = 0.0000-0.4444 0.4444 (   420 PWs)   bands (ev):

   -67.7215 -34.0872 -33.7249 -33.5467  14.8848  16.7067  19.2572  19.3796
    20.3507  20.9395  29.2345  39.5618

          k =-0.1111-0.1111 0.2222 (   409 PWs)   bands (ev):

   -67.7949 -33.7277 -33.5923 -33.5620  12.8300  17.5865  17.6341  18.8820
    18.8995  19.2664  40.6620  42.0411

          k =-0.1111-0.2222 0.3333 (   417 PWs)   bands (ev):

   -67.7592 -33.8904 -33.6584 -33.5685  14.4022  17.1589  17.4578  18.9665
    19.3962  20.0489  36.0031  39.4590

          k =-0.1111-0.3333 0.4444 (   419 PWs)   bands (ev):

   -67.7274 -34.0280 -33.7238 -33.5705  15.1564  16.8375  18.1849  19.2393
    19.6661  21.5321  31.1794  37.9088

          k =-0.1111 0.5556-0.4444 (   419 PWs)   bands (ev):

   -67.7148 -34.0818 -33.7497 -33.5707  15.1545  16.7217  18.6934  19.2760
    20.1063  22.7800  28.5528  37.3431

          k =-0.2222-0.2222 0.4444 (   416 PWs)   bands (ev):

   -67.7297 -33.9802 -33.7313 -33.5956  15.6079  16.7680  17.3982  19.0762
    19.5946  21.8349  33.7621  34.7777

          k =-0.2222 0.6667-0.4444 (   416 PWs)   bands (ev):

   -67.7104 -34.0164 -33.8099 -33.6043  15.8598  16.7367  17.5933  19.3027
    19.7988  24.3278  29.7098  33.3069

          k =-0.3333 0.6667-0.3333 (   430 PWs)   bands (ev):

   -67.7043 -33.9303 -33.9303 -33.6163  16.3316  16.9110  16.9110  19.5969
    19.5969  27.7137  27.7137  30.6771

          k = 0.0000 0.0000 0.2222 (   410 PWs)   bands (ev):

   -67.8056 -33.6309 -33.5904 -33.5904  12.3407  17.9487  17.9487  18.2489
    18.6427  19.3661  42.4008  44.7921

          k = 0.0000-0.1111 0.3333 (   415 PWs)   bands (ev):

   -67.7733 -33.7777 -33.6462 -33.5992  13.7065  17.6838  17.6887  18.5240
    19.0127  19.5765  38.7169  42.1205

          k = 0.0000-0.2222 0.4444 (   415 PWs)   bands (ev):

   -67.7360 -33.9542 -33.7090 -33.5961  14.9969  17.3062  17.4716  18.9824
    20.0949  20.1803  33.6237  40.2383

          k = 0.0000-0.3333 0.5556 (   423 PWs)   bands (ev):

   -67.7120 -34.0694 -33.7504 -33.5940  15.1892  17.0657  17.8965  19.0787
    20.8985  22.0463  29.3844  39.2198

          k =-0.1111-0.1111 0.4444 (   417 PWs)   bands (ev):

   -67.7396 -33.8931 -33.7119 -33.6309  15.0080  17.0640  17.7860  18.6009
    19.6558  20.3541  36.3322  37.3946

          k =-0.1111-0.2222 0.5556 (   420 PWs)   bands (ev):

   -67.7100 -34.0034 -33.7835 -33.6346  15.6733  16.8014  17.5729  18.9998
    20.2146  22.4491  31.7503  35.3913

          k =-0.1111 0.6667-0.3333 (   424 PWs)   bands (ev):

   -67.6984 -34.0475 -33.8128 -33.6345  15.6209  17.1562  17.2396  19.1004
    20.5963  24.5080  28.6958  34.7925

          k =-0.2222 0.2222 0.2222 (   417 PWs)   bands (ev):

   -67.7683 -33.8655 -33.5982 -33.5982  14.1584  17.1654  17.1654  19.1662
    19.1662  20.0857  38.4635  38.4635

          k =-0.2222 0.7778-0.3333 (   426 PWs)   bands (ev):

   -67.6930 -33.9922 -33.8891 -33.6460  16.3332  16.3503  17.1909  19.5169
    20.1242  25.7170  29.8748  31.4381

          k =-0.3333 0.3333 0.2222 (   417 PWs)   bands (ev):

   -67.7376 -33.9753 -33.6832 -33.6045  15.5388  16.8051  17.1705  19.2479
    19.3305  21.7197  33.8187  36.7786

          k = 0.5556-0.5556 0.2222 (   424 PWs)   bands (ev):

   -67.7177 -34.0301 -33.7563 -33.6090  15.6356  16.6171  18.2420  19.3638
    19.3997  23.7696  29.5553  35.8551

          k = 0.5556-0.6667 0.3333 (   422 PWs)   bands (ev):

   -67.7187 -33.9871 -33.7544 -33.6507  16.2672  16.6741  17.2096  19.3520
    19.4368  24.0996  31.9141  32.9531

          k = 0.4444-0.5556 0.3333 (   423 PWs)   bands (ev):

   -67.7113 -33.9567 -33.8249 -33.6611  16.2397  16.6929  17.5009  19.4252
    19.4661  26.5127  28.9084  32.0924

          k = 0.0000 0.0000 0.4444 (   418 PWs)   bands (ev):

   -67.7436 -33.7992 -33.7046 -33.7046  14.7729  17.3305  18.2593  18.2593
    19.0577  20.1607  39.1155  39.9521

          k = 0.0000-0.1111 0.5556 (   422 PWs)   bands (ev):

   -67.7097 -33.9259 -33.7702 -33.7208  15.6019  16.5947  18.2160  18.7298
    19.9586  21.5498  34.5968  37.5918

          k = 0.0000-0.2222 0.6667 (   425 PWs)   bands (ev):

   -67.6876 -34.0235 -33.8128 -33.7142  15.6258  16.4620  18.0624  18.9163
    20.7955  24.2941  29.9647  36.1418

          k =-0.1111-0.1111 0.6667 (   424 PWs)   bands (ev):

   -67.6832 -33.9751 -33.8531 -33.7442  15.8437  15.9856  18.2808  19.3246
    20.3766  24.1441  32.6215  33.3151

          k =-0.1111 0.7778-0.2222 (   425 PWs)   bands (ev):

   -67.6728 -33.9942 -33.8957 -33.7431  15.6951  15.9578  18.1643  19.6637
    20.6026  27.0651  29.1843  32.3851

          k = 0.5556-0.5556 0.4444 (   432 PWs)   bands (ev):

   -67.7119 -33.9106 -33.7695 -33.7695  16.7025  16.7025  17.0667  19.4271
    19.4271  27.1158  30.9503  30.9503

          k = 0.0000 0.0000 0.6667 (   418 PWs)   bands (ev):

   -67.6791 -33.9127 -33.8382 -33.8382  15.6136  15.8777  19.2297  19.2297
    20.0096  23.5370  34.9514  34.9514

          k = 0.0000-0.1111 0.7778 (   421 PWs)   bands (ev):

   -67.6594 -33.9709 -33.8831 -33.8467  15.3768  15.4707  19.4195  19.6801
    20.6811  26.6461  31.0757  33.2964

          k =-0.1111 0.8889-0.1111 (   421 PWs)   bands (ev):

   -67.6500 -33.9471 -33.9471 -33.8569  15.2153  15.2153  19.5427  20.5265
    20.5265  29.8051  29.8051  30.8926

          k = 0.0000 0.0000 0.8889 (   426 PWs)   bands (ev):

   -67.6413 -33.9407 -33.9287 -33.9287  14.9648  14.9733  20.4899  20.4899
    20.6490  29.2478  31.4864  31.4864

 ------ SPIN DOWN ----------


          k = 0.0000 0.0000 0.0000 (   429 PWs)   bands (ev):

   -65.3941 -31.1458 -31.1458 -31.1458  11.4813  19.5161  19.5161  19.5161
    22.0465  22.0465  45.8893  45.8893

          k = 0.0000-0.1111 0.1111 (   407 PWs)   bands (ev):

   -65.3790 -31.2176 -31.1682 -31.1445  12.0332  19.3331  19.4763  19.8486
    21.8547  22.0617  43.5590  45.2717

          k = 0.0000-0.2222 0.2222 (   414 PWs)   bands (ev):

   -65.3429 -31.4009 -31.2280 -31.1450  13.5213  18.8892  19.2835  20.7488
    21.6220  22.1226  38.9971  43.1670

          k = 0.0000-0.3333 0.3333 (   418 PWs)   bands (ev):

   -65.3015 -31.6057 -31.2947 -31.1453  15.2707  18.4145  19.3752  21.6816
    21.9047  22.2337  34.1258  40.9464

          k = 0.0000-0.4444 0.4444 (   420 PWs)   bands (ev):

   -65.2744 -31.7372 -31.3382 -31.1455  16.0097  18.1198  20.6192  21.8101
    22.3329  22.7651  30.4011  39.6463

          k =-0.1111-0.1111 0.2222 (   409 PWs)   bands (ev):

   -65.3537 -31.3437 -31.1947 -31.1619  13.0622  19.1087  19.2078  20.5294
    21.5895  22.1505  41.0776  42.3734

          k =-0.1111-0.2222 0.3333 (   417 PWs)   bands (ev):

   -65.3150 -31.5219 -31.2666 -31.1692  14.7847  18.6501  18.9395  21.4889
    21.6793  22.3106  36.6954  39.8789

          k =-0.1111-0.3333 0.4444 (   419 PWs)   bands (ev):

   -65.2807 -31.6724 -31.3375 -31.1713  16.1164  18.2595  19.3594  21.6719
    22.3291  23.1416  32.1371  38.3195

          k =-0.1111 0.5556-0.4444 (   419 PWs)   bands (ev):

   -65.2671 -31.7310 -31.3656 -31.1717  16.3593  18.1191  20.0390  21.7765
    22.4479  24.0360  29.7761  37.7391

          k =-0.2222-0.2222 0.4444 (   416 PWs)   bands (ev):

   -65.2831 -31.6200 -31.3466 -31.1984  16.3428  18.3243  18.6554  21.5218
    22.2801  23.4671  34.5646  35.3958

          k =-0.2222 0.6667-0.4444 (   416 PWs)   bands (ev):

   -65.2623 -31.6594 -31.4325 -31.2082  17.0627  18.1588  18.8952  21.7459
    22.2904  25.5900  30.7158  33.9760

          k =-0.3333 0.6667-0.3333 (   430 PWs)   bands (ev):

   -65.2556 -31.5646 -31.5646 -31.2209  17.5894  18.3229  18.3229  22.0273
    22.0273  28.7477  28.7477  31.4965

          k = 0.0000 0.0000 0.2222 (   410 PWs)   bands (ev):

   -65.3653 -31.2382 -31.1924 -31.1924  12.5621  19.5005  19.5005  19.8516
    21.3731  22.2874  42.6684  44.9885

          k = 0.0000-0.1111 0.3333 (   415 PWs)   bands (ev):

   -65.3303 -31.3988 -31.2530 -31.2024  13.9975  19.1962  19.3802  20.6652
    20.9122  22.4721  39.3151  42.4569

          k = 0.0000-0.2222 0.4444 (   415 PWs)   bands (ev):

   -65.2900 -31.5919 -31.3212 -31.1993  15.6856  18.7696  19.1301  21.1351
    21.8363  22.7461  34.4627  40.5830

          k = 0.0000-0.3333 0.5556 (   423 PWs)   bands (ev):

   -65.2640 -31.7174 -31.3660 -31.1971  16.4055  18.4994  19.5335  21.3916
    22.7201  23.6671  30.5149  39.5452

          k =-0.1111-0.1111 0.4444 (   417 PWs)   bands (ev):

   -65.2938 -31.5249 -31.3249 -31.2368  15.5365  18.9096  19.2376  20.6848
    21.5291  22.8417  37.1069  37.9503

          k =-0.1111-0.2222 0.5556 (   420 PWs)   bands (ev):

   -65.2618 -31.6451 -31.4029 -31.2409  16.7835  18.4918  19.0603  21.0748
    22.2466  24.1459  32.6719  36.0425

          k =-0.1111 0.6667-0.3333 (   424 PWs)   bands (ev):

   -65.2492 -31.6930 -31.4348 -31.2407  17.0297  18.7008  18.8225  21.2474
    22.5356  25.7666  29.8501  35.4381

          k =-0.2222 0.2222 0.2222 (   417 PWs)   bands (ev):

   -65.3249 -31.4943 -31.2013 -31.2013  14.4399  18.6659  18.6659  21.7264
    21.9471  21.9471  38.9518  38.9518

          k =-0.2222 0.7778-0.3333 (   426 PWs)   bands (ev):

   -65.2435 -31.6322 -31.5188 -31.2527  17.7566  18.0521  18.6980  21.5216
    22.1445  26.9666  30.9041  32.1875

          k =-0.3333 0.3333 0.2222 (   417 PWs)   bands (ev):

   -65.2916 -31.6147 -31.2940 -31.2086  16.1456  18.2107  18.4572  21.9306
    22.2143  23.2597  34.5550  37.2572

          k = 0.5556-0.5556 0.2222 (   424 PWs)   bands (ev):

   -65.2702 -31.6745 -31.3735 -31.2135  16.7782  17.9643  19.1815  22.0117
    22.3534  24.9599  30.5768  36.3040

          k = 0.5556-0.6667 0.3333 (   422 PWs)   bands (ev):

   -65.2712 -31.6273 -31.3722 -31.2590  17.3199  18.0184  18.2572  22.0989
    22.3246  25.3672  32.6866  33.6248

          k = 0.4444-0.5556 0.3333 (   423 PWs)   bands (ev):

   -65.2631 -31.5940 -31.4495 -31.2705  17.4441  17.9626  18.5998  22.1869
    22.3457  27.4659  29.8840  32.7833

          k = 0.0000 0.0000 0.4444 (   418 PWs)   bands (ev):

   -65.2981 -31.4232 -31.3165 -31.3165  15.2371  19.7101  19.7816  19.7816
    20.7237  22.8594  39.8510  40.5054

          k = 0.0000-0.1111 0.5556 (   422 PWs)   bands (ev):

   -65.2615 -31.5604 -31.3878 -31.3348  16.5679  18.6554  19.7308  20.4578
    21.6879  23.6168  35.3872  38.1586

          k = 0.0000-0.2222 0.6667 (   425 PWs)   bands (ev):

   -65.2376 -31.6665 -31.4342 -31.3277  17.1719  18.2482  19.5612  20.7900
    22.6074  25.6419  30.9629  36.6742

          k =-0.1111-0.1111 0.6667 (   424 PWs)   bands (ev):

   -65.2329 -31.6134 -31.4787 -31.3599  17.3136  17.9425  19.8210  21.0244
    22.1926  25.5456  33.5015  33.9513

          k =-0.1111 0.7778-0.2222 (   425 PWs)   bands (ev):

   -65.2216 -31.6338 -31.5255 -31.3585  17.4957  17.7520  19.6409  21.4248
    22.4241  28.1345  30.1593  33.0721

          k = 0.5556-0.5556 0.4444 (   432 PWs)   bands (ev):

   -65.2637 -31.5434 -31.3891 -31.3891  17.9148  17.9148  18.1038  22.3704
    22.3704  28.0679  31.6832  31.6832

          k = 0.0000 0.0000 0.6667 (   418 PWs)   bands (ev):

   -65.2286 -31.5457 -31.4622 -31.4622  17.0752  17.9354  20.8072  20.8072
    21.7556  24.9919  35.4856  35.4856

          k = 0.0000-0.1111 0.7778 (   421 PWs)   bands (ev):

   -65.2072 -31.6081 -31.5111 -31.4719  17.1773  17.3544  21.0366  21.3265
    22.4829  27.6304  31.7893  33.7639

          k =-0.1111 0.8889-0.1111 (   421 PWs)   bands (ev):

   -65.1971 -31.5815 -31.5815 -31.4826  17.0794  17.0794  21.1527  22.2989
    22.2989  30.5267  30.5267  31.4237

          k = 0.0000 0.0000 0.8889 (   426 PWs)   bands (ev):

   -65.1876 -31.5745 -31.5609 -31.5609  16.8181  16.8525  22.2468  22.2468
    22.4521  29.8236  31.8401  31.8401

     the Fermi energy is    20.3703 ev

!    total energy              =    -329.25822468 Ry
     Harris-Foulkes estimate   =    -329.25822466 Ry
     estimated scf accuracy    <          8.0E-10 Ry

     total all-electron energy =     -2545.554760 Ry

     The total energy is the sum of the following terms:

     one-electron contribution =    -101.52166109 Ry
     hartree contribution      =      62.46583690 Ry
     xc contribution           =     -34.88689633 Ry
     ewald contribution        =    -179.16226214 Ry
     one-center paw contrib.   =     -76.15384098 Ry
     smearing contrib. (-TS)   =       0.00059896 Ry

     total magnetization       =     2.03 Bohr mag/cell
     absolute magnetization    =     2.11 Bohr mag/cell

     convergence has been achieved in  12 iterations

     Forces acting on atoms (Ry/au):


     negative rho (up, down):  0.000E+00 7.578E-05
     atom    1 type  1   force =     0.00000000    0.00000000    0.00000000

     Total force =     0.000000     Total SCF correction =     0.000000


     entering subroutine stress ...


     negative rho (up, down):  0.000E+00 7.578E-05
          total   stress  (Ry/bohr**3)                   (kbar)     P=  117.16
   0.00079645   0.00000000  -0.00000000        117.16      0.00     -0.00
   0.00000000   0.00079645   0.00000000          0.00    117.16      0.00
  -0.00000000   0.00000000   0.00079645         -0.00      0.00    117.16


     Writing output data file Fe_bcc.save

     init_run     :      1.63s CPU      1.71s WALL (       1 calls)
     electrons    :     22.10s CPU     22.55s WALL (       1 calls)
     forces       :      0.12s CPU      0.13s WALL (       1 calls)
     stress       :      0.44s CPU      0.48s WALL (       1 calls)

     Called by init_run:
     wfcinit      :      0.54s CPU      0.56s WALL (       1 calls)
     potinit      :      0.60s CPU      0.63s WALL (       1 calls)

     Called by electrons:
     c_bands      :     13.50s CPU     13.73s WALL (      12 calls)
     sum_band     :      2.47s CPU      2.53s WALL (      12 calls)
     v_of_rho     :      0.29s CPU      0.30s WALL (      13 calls)
     newd         :      0.18s CPU      0.19s WALL (      13 calls)
     mix_rho      :      0.03s CPU      0.03s WALL (      12 calls)

     Called by c_bands:
     init_us_2    :      0.29s CPU      0.29s WALL (    1890 calls)
     cegterg      :     12.95s CPU     13.16s WALL (     840 calls)

     Called by *egterg:
     h_psi        :     11.21s CPU     11.43s WALL (    2736 calls)
     s_psi        :      0.28s CPU      0.24s WALL (    2736 calls)
     g_psi        :      0.06s CPU      0.06s WALL (    1826 calls)
     cdiaghg      :      0.77s CPU      0.79s WALL (    2666 calls)

     Called by h_psi:
     add_vuspsi   :      0.29s CPU      0.27s WALL (    2736 calls)

     General routines
     calbec       :      0.31s CPU      0.32s WALL (    3716 calls)
     fft          :      0.15s CPU      0.16s WALL (     437 calls)
     ffts         :      0.02s CPU      0.02s WALL (      50 calls)
     fftw         :     11.36s CPU     11.59s WALL (   59774 calls)
     interpolate  :      0.04s CPU      0.04s WALL (      50 calls)
     davcio       :      0.00s CPU      0.00s WALL (      70 calls)


     PAW routines
     PAW_pot      :      6.19s CPU      6.36s WALL (      13 calls)
     PAW_symme    :      0.02s CPU      0.02s WALL (      25 calls)

     PWSCF        :    24.76s CPU        25.39s WALL


   This run was terminated on:  14:39:29  12May2015            

=------------------------------------------------------------------------------=
   JOB DONE.
=------------------------------------------------------------------------------=
