
     Program PWSCF v.5.1.2 starts on 12May2015 at 14:39:29 

     This program is part of the open-source Quantum ESPRESSO suite
     for quantum simulation of materials; please cite
         "P. Giannozzi et al., J. Phys.:Condens. Matter 21 395502 (2009);
          URL http://www.quantum-espresso.org", 
     in publications or presentations arising from this work. More details at
     http://www.quantum-espresso.org/quote

     Serial version
     Reading input from Fe_bcc_5.25_9.pw.in

     Current dimensions of program PWSCF are:
     Max number of different atomic species (ntypx) = 10
     Max number of k-points (npk) =  40000
     Max angular momentum in pseudopotentials (lmaxx) =  3
               file Fe.pbe-spn-kjpaw_psl.0.2.1.UPF: wavefunction(s)  3D renormalized

     G-vector sticks info
     --------------------
     sticks:   dense  smooth     PW     G-vecs:    dense   smooth      PW
     Sum         391     311     99                 4897     3463     675

     Generating pointlists ...
     new r_m :   0.3572 (alat units)  1.8755 (a.u.) for type    1


     bravais-lattice index     =            3
     lattice parameter (alat)  =       5.2500  a.u.
     unit-cell volume          =      72.3516 (a.u.)^3
     number of atoms/cell      =            1
     number of atomic types    =            1
     number of electrons       =        16.00
     number of Kohn-Sham states=           12
     kinetic-energy cutoff     =      50.0000  Ry
     charge density cutoff     =     250.0000  Ry
     convergence threshold     =      1.0E-08
     mixing beta               =       0.7000
     number of iterations used =            8  plain     mixing
     Exchange-correlation      =  SLA  PW   PBX  PBC ( 1  4  3  4 0 0)

     celldm(1)=   5.250000  celldm(2)=   0.000000  celldm(3)=   0.000000
     celldm(4)=   0.000000  celldm(5)=   0.000000  celldm(6)=   0.000000

     crystal axes: (cart. coord. in units of alat)
               a(1) = (   0.500000   0.500000   0.500000 )  
               a(2) = (  -0.500000   0.500000   0.500000 )  
               a(3) = (  -0.500000  -0.500000   0.500000 )  

     reciprocal axes: (cart. coord. in units 2 pi/alat)
               b(1) = (  1.000000  0.000000  1.000000 )  
               b(2) = ( -1.000000  1.000000  0.000000 )  
               b(3) = (  0.000000 -1.000000  1.000000 )  


     PseudoPot. # 1 for Fe read from file:
     ./Fe.pbe-spn-kjpaw_psl.0.2.1.UPF
     MD5 check sum: a0a08122d52b112de96d1da1d7dd020f
     Pseudo is Projector augmented-wave + core cor, Zval = 16.0
     Generated using "atomic" code by A. Dal Corso  v.5.0.2 svn rev. 9415
     Shape of augmentation charge: PSQ
     Using radial grid of 1191 points,  6 beta functions with: 
                l(1) =   0
                l(2) =   0
                l(3) =   1
                l(4) =   1
                l(5) =   2
                l(6) =   2
     Q(r) pseudized with 0 coefficients 


     atomic species   valence    mass     pseudopotential
        Fe            16.00    55.85000     Fe( 1.00)

     Starting magnetic structure 
     atomic species   magnetization
        Fe           0.700

     48 Sym. Ops., with inversion, found



   Cartesian axes

     site n.     atom                  positions (alat units)
         1           Fe  tau(   1) = (   0.0000000   0.0000000   0.0000000  )

     number of k points=    70  Marzari-Vanderbilt smearing, width (Ry)=  0.0250
                       cart. coord. in units 2pi/alat
        k(    1) = (   0.0000000   0.0000000   0.0000000), wk =   0.0013717
        k(    2) = (   0.0000000  -0.1111111   0.1111111), wk =   0.0164609
        k(    3) = (   0.0000000  -0.2222222   0.2222222), wk =   0.0164609
        k(    4) = (   0.0000000  -0.3333333   0.3333333), wk =   0.0164609
        k(    5) = (   0.0000000  -0.4444444   0.4444444), wk =   0.0164609
        k(    6) = (  -0.1111111  -0.1111111   0.2222222), wk =   0.0329218
        k(    7) = (  -0.1111111  -0.2222222   0.3333333), wk =   0.0658436
        k(    8) = (  -0.1111111  -0.3333333   0.4444444), wk =   0.0658436
        k(    9) = (  -0.1111111   0.5555556  -0.4444444), wk =   0.0329218
        k(   10) = (  -0.2222222  -0.2222222   0.4444444), wk =   0.0329218
        k(   11) = (  -0.2222222   0.6666667  -0.4444444), wk =   0.0658436
        k(   12) = (  -0.3333333   0.6666667  -0.3333333), wk =   0.0109739
        k(   13) = (   0.0000000   0.0000000   0.2222222), wk =   0.0082305
        k(   14) = (   0.0000000  -0.1111111   0.3333333), wk =   0.0329218
        k(   15) = (   0.0000000  -0.2222222   0.4444444), wk =   0.0329218
        k(   16) = (   0.0000000  -0.3333333   0.5555556), wk =   0.0329218
        k(   17) = (  -0.1111111  -0.1111111   0.4444444), wk =   0.0329218
        k(   18) = (  -0.1111111  -0.2222222   0.5555556), wk =   0.0658436
        k(   19) = (  -0.1111111   0.6666667  -0.3333333), wk =   0.0329218
        k(   20) = (  -0.2222222   0.2222222   0.2222222), wk =   0.0109739
        k(   21) = (  -0.2222222   0.7777778  -0.3333333), wk =   0.0329218
        k(   22) = (  -0.3333333   0.3333333   0.2222222), wk =   0.0329218
        k(   23) = (   0.5555556  -0.5555556   0.2222222), wk =   0.0329218
        k(   24) = (   0.5555556  -0.6666667   0.3333333), wk =   0.0329218
        k(   25) = (   0.4444444  -0.5555556   0.3333333), wk =   0.0329218
        k(   26) = (   0.0000000   0.0000000   0.4444444), wk =   0.0082305
        k(   27) = (   0.0000000  -0.1111111   0.5555556), wk =   0.0329218
        k(   28) = (   0.0000000  -0.2222222   0.6666667), wk =   0.0329218
        k(   29) = (  -0.1111111  -0.1111111   0.6666667), wk =   0.0329218
        k(   30) = (  -0.1111111   0.7777778  -0.2222222), wk =   0.0329218
        k(   31) = (   0.5555556  -0.5555556   0.4444444), wk =   0.0109739
        k(   32) = (   0.0000000   0.0000000   0.6666667), wk =   0.0082305
        k(   33) = (   0.0000000  -0.1111111   0.7777778), wk =   0.0329218
        k(   34) = (  -0.1111111   0.8888889  -0.1111111), wk =   0.0109739
        k(   35) = (   0.0000000   0.0000000   0.8888889), wk =   0.0082305
        k(   36) = (   0.0000000   0.0000000   0.0000000), wk =   0.0013717
        k(   37) = (   0.0000000  -0.1111111   0.1111111), wk =   0.0164609
        k(   38) = (   0.0000000  -0.2222222   0.2222222), wk =   0.0164609
        k(   39) = (   0.0000000  -0.3333333   0.3333333), wk =   0.0164609
        k(   40) = (   0.0000000  -0.4444444   0.4444444), wk =   0.0164609
        k(   41) = (  -0.1111111  -0.1111111   0.2222222), wk =   0.0329218
        k(   42) = (  -0.1111111  -0.2222222   0.3333333), wk =   0.0658436
        k(   43) = (  -0.1111111  -0.3333333   0.4444444), wk =   0.0658436
        k(   44) = (  -0.1111111   0.5555556  -0.4444444), wk =   0.0329218
        k(   45) = (  -0.2222222  -0.2222222   0.4444444), wk =   0.0329218
        k(   46) = (  -0.2222222   0.6666667  -0.4444444), wk =   0.0658436
        k(   47) = (  -0.3333333   0.6666667  -0.3333333), wk =   0.0109739
        k(   48) = (   0.0000000   0.0000000   0.2222222), wk =   0.0082305
        k(   49) = (   0.0000000  -0.1111111   0.3333333), wk =   0.0329218
        k(   50) = (   0.0000000  -0.2222222   0.4444444), wk =   0.0329218
        k(   51) = (   0.0000000  -0.3333333   0.5555556), wk =   0.0329218
        k(   52) = (  -0.1111111  -0.1111111   0.4444444), wk =   0.0329218
        k(   53) = (  -0.1111111  -0.2222222   0.5555556), wk =   0.0658436
        k(   54) = (  -0.1111111   0.6666667  -0.3333333), wk =   0.0329218
        k(   55) = (  -0.2222222   0.2222222   0.2222222), wk =   0.0109739
        k(   56) = (  -0.2222222   0.7777778  -0.3333333), wk =   0.0329218
        k(   57) = (  -0.3333333   0.3333333   0.2222222), wk =   0.0329218
        k(   58) = (   0.5555556  -0.5555556   0.2222222), wk =   0.0329218
        k(   59) = (   0.5555556  -0.6666667   0.3333333), wk =   0.0329218
        k(   60) = (   0.4444444  -0.5555556   0.3333333), wk =   0.0329218
        k(   61) = (   0.0000000   0.0000000   0.4444444), wk =   0.0082305
        k(   62) = (   0.0000000  -0.1111111   0.5555556), wk =   0.0329218
        k(   63) = (   0.0000000  -0.2222222   0.6666667), wk =   0.0329218
        k(   64) = (  -0.1111111  -0.1111111   0.6666667), wk =   0.0329218
        k(   65) = (  -0.1111111   0.7777778  -0.2222222), wk =   0.0329218
        k(   66) = (   0.5555556  -0.5555556   0.4444444), wk =   0.0109739
        k(   67) = (   0.0000000   0.0000000   0.6666667), wk =   0.0082305
        k(   68) = (   0.0000000  -0.1111111   0.7777778), wk =   0.0329218
        k(   69) = (  -0.1111111   0.8888889  -0.1111111), wk =   0.0109739
        k(   70) = (   0.0000000   0.0000000   0.8888889), wk =   0.0082305

     Dense  grid:     4897 G-vectors     FFT dimensions: (  24,  24,  24)

     Smooth grid:     3463 G-vectors     FFT dimensions: (  24,  24,  24)

     Largest allocated arrays     est. size (Mb)     dimensions
        Kohn-Sham Wavefunctions         0.08 Mb     (     444,   12)
        NL pseudopotentials             0.12 Mb     (     444,   18)
        Each V/rho on FFT grid          0.42 Mb     (   13824,   2)
        Each G-vector array             0.04 Mb     (    4897)
        G-vector shells                 0.00 Mb     (      82)
     Largest temporary arrays     est. size (Mb)     dimensions
        Auxiliary wavefunctions         0.33 Mb     (     444,   48)
        Each subspace H/S matrix        0.04 Mb     (      48,   48)
        Each <psi_i|beta_j> matrix      0.00 Mb     (      18,   12)
        Arrays for rho mixing           1.69 Mb     (   13824,    8)

     Check: negative/imaginary core charge=   -0.000438    0.000000

     Initial potential from superposition of free atoms

     starting charge   15.99956, renormalised to   16.00000
     Starting wfc are   13 randomized atomic wfcs

     total cpu time spent up to now is        2.0 secs

     Self-consistent Calculation

     iteration #  1     ecut=    50.00 Ry     beta=0.70
     Davidson diagonalization with overlap
     ethr =  1.00E-02,  avg # of iterations =  3.4

     negative rho (up, down):  0.000E+00 2.758E-04

     Magnetic moment per site:
     atom:    1    charge:   14.2370    magn:    5.6019    constr:    0.0000

     total cpu time spent up to now is        4.1 secs

     total energy              =    -328.98172293 Ry
     Harris-Foulkes estimate   =    -328.02058761 Ry
     estimated scf accuracy    <       1.55110859 Ry

     total magnetization       =     3.74 Bohr mag/cell
     absolute magnetization    =     3.77 Bohr mag/cell

     iteration #  2     ecut=    50.00 Ry     beta=0.70
     Davidson diagonalization with overlap
     ethr =  9.69E-03,  avg # of iterations =  1.1

     negative rho (up, down):  0.000E+00 2.930E-04

     Magnetic moment per site:
     atom:    1    charge:   14.4509    magn:    3.2498    constr:    0.0000

     total cpu time spent up to now is        5.9 secs

     total energy              =    -329.17445002 Ry
     Harris-Foulkes estimate   =    -329.08618695 Ry
     estimated scf accuracy    <       0.32381705 Ry

     total magnetization       =     2.95 Bohr mag/cell
     absolute magnetization    =     3.09 Bohr mag/cell

     iteration #  3     ecut=    50.00 Ry     beta=0.70
     Davidson diagonalization with overlap
     ethr =  2.02E-03,  avg # of iterations =  2.1

     negative rho (up, down):  0.000E+00 2.802E-04

     Magnetic moment per site:
     atom:    1    charge:   14.3354    magn:    2.3442    constr:    0.0000

     total cpu time spent up to now is        7.8 secs

     total energy              =    -329.19079616 Ry
     Harris-Foulkes estimate   =    -329.33225323 Ry
     estimated scf accuracy    <       0.41128650 Ry

     total magnetization       =     2.30 Bohr mag/cell
     absolute magnetization    =     2.44 Bohr mag/cell

     iteration #  4     ecut=    50.00 Ry     beta=0.70
     Davidson diagonalization with overlap
     ethr =  2.02E-03,  avg # of iterations =  2.0

     negative rho (up, down):  0.000E+00 1.192E-04

     Magnetic moment per site:
     atom:    1    charge:   14.3596    magn:    2.0353    constr:    0.0000

     total cpu time spent up to now is        9.5 secs

     total energy              =    -329.25673518 Ry
     Harris-Foulkes estimate   =    -329.25564867 Ry
     estimated scf accuracy    <       0.00301769 Ry

     total magnetization       =     2.14 Bohr mag/cell
     absolute magnetization    =     2.29 Bohr mag/cell

     iteration #  5     ecut=    50.00 Ry     beta=0.70
     Davidson diagonalization with overlap
     ethr =  1.89E-05,  avg # of iterations =  3.3

     negative rho (up, down):  0.000E+00 1.229E-04

     Magnetic moment per site:
     atom:    1    charge:   14.3453    magn:    2.1463    constr:    0.0000

     total cpu time spent up to now is       11.7 secs

     total energy              =    -329.26044557 Ry
     Harris-Foulkes estimate   =    -329.26044002 Ry
     estimated scf accuracy    <       0.00053450 Ry

     total magnetization       =     2.04 Bohr mag/cell
     absolute magnetization    =     2.15 Bohr mag/cell

     iteration #  6     ecut=    50.00 Ry     beta=0.70
     Davidson diagonalization with overlap
     ethr =  3.34E-06,  avg # of iterations =  2.7

     negative rho (up, down):  0.000E+00 8.142E-05

     Magnetic moment per site:
     atom:    1    charge:   14.3463    magn:    2.0560    constr:    0.0000

     total cpu time spent up to now is       13.7 secs

     total energy              =    -329.26067694 Ry
     Harris-Foulkes estimate   =    -329.26073400 Ry
     estimated scf accuracy    <       0.00069630 Ry

     total magnetization       =     2.05 Bohr mag/cell
     absolute magnetization    =     2.15 Bohr mag/cell

     iteration #  7     ecut=    50.00 Ry     beta=0.70
     Davidson diagonalization with overlap
     ethr =  3.34E-06,  avg # of iterations =  1.5

     negative rho (up, down):  0.000E+00 9.771E-05

     Magnetic moment per site:
     atom:    1    charge:   14.3484    magn:    2.0871    constr:    0.0000

     total cpu time spent up to now is       15.4 secs

     total energy              =    -329.26086246 Ry
     Harris-Foulkes estimate   =    -329.26084932 Ry
     estimated scf accuracy    <       0.00002521 Ry

     total magnetization       =     2.04 Bohr mag/cell
     absolute magnetization    =     2.13 Bohr mag/cell

     iteration #  8     ecut=    50.00 Ry     beta=0.70
     Davidson diagonalization with overlap
     ethr =  1.58E-07,  avg # of iterations =  3.0

     negative rho (up, down):  0.000E+00 9.535E-05

     Magnetic moment per site:
     atom:    1    charge:   14.3489    magn:    2.0755    constr:    0.0000

     total cpu time spent up to now is       17.5 secs

     total energy              =    -329.26088296 Ry
     Harris-Foulkes estimate   =    -329.26087464 Ry
     estimated scf accuracy    <       0.00001544 Ry

     total magnetization       =     2.04 Bohr mag/cell
     absolute magnetization    =     2.13 Bohr mag/cell

     iteration #  9     ecut=    50.00 Ry     beta=0.70
     Davidson diagonalization with overlap
     ethr =  9.65E-08,  avg # of iterations =  1.5

     negative rho (up, down):  0.000E+00 9.238E-05

     Magnetic moment per site:
     atom:    1    charge:   14.3483    magn:    2.0675    constr:    0.0000

     total cpu time spent up to now is       19.1 secs

     total energy              =    -329.26088769 Ry
     Harris-Foulkes estimate   =    -329.26088650 Ry
     estimated scf accuracy    <       0.00000265 Ry

     total magnetization       =     2.04 Bohr mag/cell
     absolute magnetization    =     2.13 Bohr mag/cell

     iteration # 10     ecut=    50.00 Ry     beta=0.70
     Davidson diagonalization with overlap
     ethr =  1.66E-08,  avg # of iterations =  1.5

     negative rho (up, down):  0.000E+00 9.217E-05

     Magnetic moment per site:
     atom:    1    charge:   14.3482    magn:    2.0671    constr:    0.0000

     total cpu time spent up to now is       20.8 secs

     total energy              =    -329.26088841 Ry
     Harris-Foulkes estimate   =    -329.26088824 Ry
     estimated scf accuracy    <       0.00000010 Ry

     total magnetization       =     2.04 Bohr mag/cell
     absolute magnetization    =     2.13 Bohr mag/cell

     iteration # 11     ecut=    50.00 Ry     beta=0.70
     Davidson diagonalization with overlap
     ethr =  6.37E-10,  avg # of iterations =  2.7

     negative rho (up, down):  0.000E+00 9.210E-05

     Magnetic moment per site:
     atom:    1    charge:   14.3483    magn:    2.0673    constr:    0.0000

     total cpu time spent up to now is       22.6 secs

     total energy              =    -329.26088848 Ry
     Harris-Foulkes estimate   =    -329.26088845 Ry
     estimated scf accuracy    <       0.00000004 Ry

     total magnetization       =     2.04 Bohr mag/cell
     absolute magnetization    =     2.13 Bohr mag/cell

     iteration # 12     ecut=    50.00 Ry     beta=0.70
     Davidson diagonalization with overlap
     ethr =  2.32E-10,  avg # of iterations =  1.2

     negative rho (up, down):  0.000E+00 9.191E-05

     Magnetic moment per site:
     atom:    1    charge:   14.3482    magn:    2.0671    constr:    0.0000

     total cpu time spent up to now is       24.2 secs

     total energy              =    -329.26088849 Ry
     Harris-Foulkes estimate   =    -329.26088849 Ry
     estimated scf accuracy    <       0.00000001 Ry

     total magnetization       =     2.04 Bohr mag/cell
     absolute magnetization    =     2.13 Bohr mag/cell

     iteration # 13     ecut=    50.00 Ry     beta=0.70
     Davidson diagonalization with overlap
     ethr =  7.54E-11,  avg # of iterations =  2.1

     negative rho (up, down):  0.000E+00 9.197E-05

     Magnetic moment per site:
     atom:    1    charge:   14.3482    magn:    2.0671    constr:    0.0000

     total cpu time spent up to now is       26.0 secs

     End of self-consistent calculation

 ------ SPIN UP ------------


          k = 0.0000 0.0000 0.0000 (   429 PWs)   bands (ev):

   -68.4909 -34.2345 -34.2345 -34.2345  10.7532  17.3114  17.3114  17.3114
    18.4619  18.4619  45.0874  45.0874

          k = 0.0000-0.1111 0.1111 (   425 PWs)   bands (ev):

   -68.4790 -34.2941 -34.2539 -34.2342  11.2870  17.1594  17.2816  17.6105
    18.3367  18.4752  42.3504  44.2878

          k = 0.0000-0.2222 0.2222 (   422 PWs)   bands (ev):

   -68.4490 -34.4451 -34.3034 -34.2332  12.7025  16.7877  17.1007  18.3046
    18.4165  18.5223  37.3962  42.0216

          k = 0.0000-0.3333 0.3333 (   444 PWs)   bands (ev):

   -68.4159 -34.6159 -34.3608 -34.2345  14.0827  16.3858  17.5439  18.5436
    18.6005  19.4388  32.2614  39.8314

          k = 0.0000-0.4444 0.4444 (   432 PWs)   bands (ev):

   -68.3930 -34.7247 -34.3970 -34.2336  14.3586  16.1343  18.5576  18.6667
    19.6527  20.1885  28.2553  38.6179

          k =-0.1111-0.1111 0.2222 (   424 PWs)   bands (ev):

   -68.4581 -34.3981 -34.2757 -34.2482  12.2756  16.9765  17.0208  18.1981
    18.2344  18.5610  39.6457  40.9848

          k =-0.1111-0.2222 0.3333 (   434 PWs)   bands (ev):

   -68.4266 -34.5464 -34.3360 -34.2543  13.8296  16.5661  16.8455  18.2829
    18.6846  19.3350  34.9827  38.4198

          k =-0.1111-0.3333 0.4444 (   425 PWs)   bands (ev):

   -68.3979 -34.6704 -34.3950 -34.2548  14.6126  16.2591  17.5389  18.5445
    18.9506  20.7709  30.2011  36.9061

          k =-0.1111 0.5556-0.4444 (   433 PWs)   bands (ev):

   -68.3871 -34.7197 -34.4192 -34.2558  14.6218  16.1482  18.0223  18.5765
    19.3858  22.0027  27.5800  36.3513

          k =-0.2222-0.2222 0.4444 (   435 PWs)   bands (ev):

   -68.4005 -34.6280 -34.4025 -34.2790  15.0336  16.1846  16.7884  18.3891
    18.8761  21.0548  32.7761  33.7359

          k =-0.2222 0.6667-0.4444 (   432 PWs)   bands (ev):

   -68.3832 -34.6607 -34.4738 -34.2864  15.3036  16.1568  16.9687  18.6048
    19.0800  23.4951  28.7444  32.3009

          k =-0.3333 0.6667-0.3333 (   436 PWs)   bands (ev):

   -68.3775 -34.5825 -34.5825 -34.2961  15.7691  16.3161  16.3161  18.8880
    18.8880  26.8264  26.8264  29.6697

          k = 0.0000 0.0000 0.2222 (   418 PWs)   bands (ev):

   -68.4672 -34.3098 -34.2736 -34.2736  11.7990  17.3236  17.3236  17.6113
    17.9685  18.6553  41.4213  43.7125

          k = 0.0000-0.1111 0.3333 (   426 PWs)   bands (ev):

   -68.4387 -34.4435 -34.3247 -34.2816  13.1401  17.0675  17.0706  17.8645
    18.3437  18.8550  37.6944  41.0748

          k = 0.0000-0.2222 0.4444 (   430 PWs)   bands (ev):

   -68.4059 -34.6042 -34.3821 -34.2793  14.4356  16.7091  16.8482  18.3035
    19.3804  19.4395  32.6077  39.2376

          k = 0.0000-0.3333 0.5556 (   435 PWs)   bands (ev):

   -68.3845 -34.7087 -34.4196 -34.2773  14.6536  16.4787  17.2547  18.3914
    20.1493  21.2783  28.4106  38.4175

          k =-0.1111-0.1111 0.4444 (   437 PWs)   bands (ev):

   -68.4092 -34.5489 -34.3854 -34.3110  14.4269  16.4667  17.1665  17.9422
    18.9492  19.6110  35.3144  36.3156

          k =-0.1111-0.2222 0.5556 (   431 PWs)   bands (ev):

   -68.3825 -34.6487 -34.4497 -34.3141  15.1145  16.2101  16.9606  18.3225
    19.4878  21.6555  30.7632  34.3718

          k =-0.1111 0.6667-0.3333 (   433 PWs)   bands (ev):

   -68.3722 -34.6890 -34.4764 -34.3137  15.0748  16.5464  16.6438  18.4170
    19.8576  23.6879  27.7377  33.7781

          k =-0.2222 0.2222 0.2222 (   420 PWs)   bands (ev):

   -68.4340 -34.5233 -34.2796 -34.2796  13.5861  16.5726  16.5726  18.4676
    18.4676  19.3723  37.4677  37.4677

          k =-0.2222 0.7778-0.3333 (   431 PWs)   bands (ev):

   -68.3673 -34.6388 -34.5448 -34.3240  15.7628  15.7743  16.5930  18.8211
    19.4023  24.8568  28.9562  30.4346

          k =-0.3333 0.3333 0.2222 (   426 PWs)   bands (ev):

   -68.4070 -34.6229 -34.3581 -34.2855  14.9616  16.2275  16.5677  18.5473
    18.6217  20.9467  32.8286  35.8008

          k = 0.5556-0.5556 0.2222 (   438 PWs)   bands (ev):

   -68.3898 -34.6729 -34.4246 -34.2905  15.0864  16.0466  17.5972  18.6581
    18.6858  22.9533  28.5884  34.8774

          k = 0.5556-0.6667 0.3333 (   440 PWs)   bands (ev):

   -68.3908 -34.6340 -34.4229 -34.3285  15.6979  16.0952  16.6016  18.6454
    18.7227  23.2649  30.9589  31.9341

          k = 0.4444-0.5556 0.3333 (   443 PWs)   bands (ev):

   -68.3843 -34.6065 -34.4872 -34.3385  15.6745  16.1142  16.8843  18.7149
    18.7515  25.6443  27.9677  31.0985

          k = 0.0000 0.0000 0.4444 (   434 PWs)   bands (ev):

   -68.4125 -34.4638 -34.3781 -34.3781  14.1841  16.7183  17.6225  17.6225
    18.3876  19.4116  38.1352  38.8478

          k = 0.0000-0.1111 0.5556 (   424 PWs)   bands (ev):

   -68.3819 -34.5778 -34.4374 -34.3918  15.0349  16.0142  17.5819  18.0708
    19.2505  20.7722  33.5943  36.5348

          k = 0.0000-0.2222 0.6667 (   431 PWs)   bands (ev):

   -68.3624 -34.6672 -34.4767 -34.3862  15.0795  15.8812  17.4346  18.2452
    20.0509  23.4731  28.9978  35.1034

          k =-0.1111-0.1111 0.6667 (   429 PWs)   bands (ev):

   -68.3585 -34.6236 -34.5125 -34.4137  15.2814  15.4304  17.6424  18.6430
    19.6490  23.3104  31.6593  32.3059

          k =-0.1111 0.7778-0.2222 (   439 PWs)   bands (ev):

   -68.3496 -34.6417 -34.5523 -34.4128  15.1481  15.3966  17.5308  18.9653
    19.8653  26.1743  28.2318  31.3956

          k = 0.5556-0.5556 0.4444 (   438 PWs)   bands (ev):

   -68.3844 -34.5638 -34.4357 -34.4357  16.1253  16.1253  16.4723  18.7123
    18.7123  26.2415  30.0237  30.0237

          k = 0.0000 0.0000 0.6667 (   434 PWs)   bands (ev):

   -68.3553 -34.5664 -34.5007 -34.5007  15.0593  15.3275  18.5519  18.5519
    19.2994  22.7186  33.9012  33.9012

          k = 0.0000-0.1111 0.7778 (   438 PWs)   bands (ev):

   -68.3378 -34.6208 -34.5412 -34.5074  14.8433  14.9312  18.7347  18.9836
    19.9416  25.7561  30.1132  32.2986

          k =-0.1111 0.8889-0.1111 (   436 PWs)   bands (ev):

   -68.3294 -34.5992 -34.5992 -34.5164  14.6888  14.6888  18.8533  19.7936
    19.7936  28.8716  28.8716  29.9431

          k = 0.0000 0.0000 0.8889 (   442 PWs)   bands (ev):

   -68.3217 -34.5931 -34.5828 -34.5828  14.4504  14.4569  19.7589  19.7589
    19.9109  28.3420  30.5257  30.5257

 ------ SPIN DOWN ----------


          k = 0.0000 0.0000 0.0000 (   429 PWs)   bands (ev):

   -66.0356 -31.8201 -31.8201 -31.8201  10.9521  18.8957  18.8957  18.8957
    21.3635  21.3635  44.9024  44.9024

          k = 0.0000-0.1111 0.1111 (   425 PWs)   bands (ev):

   -66.0227 -31.8858 -31.8414 -31.8198  11.4902  18.7202  18.8578  19.2153
    21.1797  21.3781  42.5370  44.2668

          k = 0.0000-0.2222 0.2222 (   422 PWs)   bands (ev):

   -65.9903 -32.0520 -31.8951 -31.8191  12.9530  18.2941  18.6732  20.0812
    20.9523  21.4363  37.9584  42.1614

          k = 0.0000-0.3333 0.3333 (   444 PWs)   bands (ev):

   -65.9543 -32.2391 -31.9574 -31.8204  14.6963  17.8376  18.7347  21.0028
    21.1917  21.5421  33.0992  39.9575

          k = 0.0000-0.4444 0.4444 (   432 PWs)   bands (ev):

   -65.9297 -32.3585 -31.9968 -31.8196  15.4839  17.5540  19.9177  21.1232
    21.6364  22.0183  29.4154  38.6969

          k =-0.1111-0.1111 0.2222 (   424 PWs)   bands (ev):

   -66.0002 -32.0002 -31.8651 -31.8353  12.4980  18.5049  18.6013  19.8694
    20.9243  21.4622  40.0518  41.3153

          k =-0.1111-0.2222 0.3333 (   434 PWs)   bands (ev):

   -65.9660 -32.1628 -31.9308 -31.8421  14.1978  18.0645  18.3394  20.8217
    20.9746  21.6134  35.6642  38.8375

          k =-0.1111-0.3333 0.4444 (   425 PWs)   bands (ev):

   -65.9351 -32.2990 -31.9951 -31.8428  15.5639  17.6881  18.7249  20.9925
    21.6244  22.3866  31.1475  37.3147

          k =-0.1111 0.5556-0.4444 (   433 PWs)   bands (ev):

   -65.9233 -32.3528 -32.0214 -31.8439  15.8307  17.5524  19.3737  21.0920
    21.7367  23.2522  28.7994  36.7456

          k =-0.2222-0.2222 0.4444 (   435 PWs)   bands (ev):

   -65.9377 -32.2521 -32.0040 -31.8689  15.7531  17.7508  18.0565  20.8505
    21.5755  22.6962  33.5662  34.3497

          k =-0.2222 0.6667-0.4444 (   432 PWs)   bands (ev):

   -65.9191 -32.2879 -32.0820 -31.8772  16.5084  17.5865  18.2754  21.0631
    21.5846  24.7549  29.7418  32.9637

          k =-0.3333 0.6667-0.3333 (   436 PWs)   bands (ev):

   -65.9129 -32.2016 -32.2016 -31.8878  17.0323  17.7358  17.7358  21.3318
    21.3318  27.8496  27.8496  30.4853

          k = 0.0000 0.0000 0.2222 (   418 PWs)   bands (ev):

   -66.0102 -31.9038 -31.8628 -31.8628  12.0112  18.8810  18.8810  19.2191
    20.7192  21.5934  41.6759  43.9124

          k = 0.0000-0.1111 0.3333 (   426 PWs)   bands (ev):

   -65.9793 -32.0503 -31.9184 -31.8719  13.4198  18.5889  18.7687  20.0012
    20.2719  21.7680  38.2804  41.4069

          k = 0.0000-0.2222 0.4444 (   430 PWs)   bands (ev):

   -65.9437 -32.2264 -31.9808 -31.8694  15.1079  18.1789  18.5212  20.4735
    21.1266  22.0246  33.4358  39.5764

          k = 0.0000-0.3333 0.5556 (   435 PWs)   bands (ev):

   -65.9205 -32.3406 -32.0215 -31.8674  15.8714  17.9190  18.8992  20.7201
    21.9752  22.9035  29.5336  38.5563

          k =-0.1111-0.1111 0.4444 (   437 PWs)   bands (ev):

   -65.9472 -32.1657 -31.9846 -31.9038  14.9412  18.3244  18.6251  20.0429
    20.8324  22.1138  36.0749  36.8683

          k =-0.1111-0.2222 0.5556 (   431 PWs)   bands (ev):

   -65.9184 -32.2747 -32.0551 -31.9072  16.2183  17.9164  18.4547  20.4117
    21.5281  23.3587  31.6727  35.0141

          k =-0.1111 0.6667-0.3333 (   433 PWs)   bands (ev):

   -65.9072 -32.3185 -32.0843 -31.9068  16.4909  18.1125  18.2231  20.5785
    21.8036  24.9394  28.8856  34.4147

          k =-0.2222 0.2222 0.2222 (   420 PWs)   bands (ev):

   -65.9743 -32.1372 -31.8699 -31.8699  13.8571  18.0806  18.0806  21.0186
    21.2656  21.2656  37.9440  37.9440

          k =-0.2222 0.7778-0.3333 (   431 PWs)   bands (ev):

   -65.9019 -32.2634 -32.1599 -31.9177  17.1878  17.4964  18.1077  20.8368
    21.4320  26.0999  29.9707  31.1785

          k =-0.3333 0.3333 0.2222 (   426 PWs)   bands (ev):

   -65.9450 -32.2467 -31.9554 -31.8765  15.5517  17.6403  17.8695  21.2459
    21.5220  22.4924  33.5538  36.2692

          k = 0.5556-0.5556 0.2222 (   438 PWs)   bands (ev):

   -65.9261 -32.3015 -32.0278 -31.8820  16.2300  17.4004  18.5385  21.3211
    21.6558  24.1413  29.6021  35.3191

          k = 0.5556-0.6667 0.3333 (   440 PWs)   bands (ev):

   -65.9273 -32.2587 -32.0267 -31.9234  16.7404  17.4468  17.6614  21.4080
    21.6264  24.5324  31.7209  32.6003

          k = 0.4444-0.5556 0.3333 (   443 PWs)   bands (ev):

   -65.9201 -32.2284 -32.0972 -31.9344  16.8831  17.3903  17.9856  21.4919
    21.6467  26.5900  28.9367  31.7827

          k = 0.0000 0.0000 0.4444 (   434 PWs)   bands (ev):

   -65.9509 -32.0732 -31.9765 -31.9765  14.6347  19.1222  19.1509  19.1509
    20.0588  22.1308  38.8516  39.3939

          k = 0.0000-0.1111 0.5556 (   424 PWs)   bands (ev):

   -65.9178 -32.1972 -32.0413 -31.9922  15.9926  18.0963  19.1030  19.8095
    20.9849  22.8522  34.3697  37.0900

          k = 0.0000-0.2222 0.6667 (   431 PWs)   bands (ev):

   -65.8967 -32.2945 -32.0841 -31.9862  16.6326  17.6848  18.9397  20.1320
    21.8674  24.8173  29.9865  35.6247

          k =-0.1111-0.1111 0.6667 (   429 PWs)   bands (ev):

   -65.8924 -32.2465 -32.1239 -32.0157  16.7572  17.4082  19.1901  20.3509
    21.4709  24.7122  32.5229  32.9340

          k =-0.1111 0.7778-0.2222 (   439 PWs)   bands (ev):

   -65.8827 -32.2658 -32.1674 -32.0147  16.9651  17.2064  19.0142  20.7347
    21.6925  27.2359  29.1983  32.0733

          k = 0.5556-0.5556 0.4444 (   438 PWs)   bands (ev):

   -65.9202 -32.1816 -32.0412 -32.0412  17.3432  17.3432  17.5121  21.6715
    21.6715  27.1849  30.7458  30.7458

          k = 0.0000 0.0000 0.6667 (   434 PWs)   bands (ev):

   -65.8889 -32.1842 -32.1104 -32.1104  16.5269  17.4094  20.1353  20.1353
    21.0504  24.1762  34.4269  34.4269

          k = 0.0000-0.1111 0.7778 (   438 PWs)   bands (ev):

   -65.8699 -32.2426 -32.1547 -32.1183  16.6554  16.8412  20.3577  20.6366
    21.7480  26.7357  30.8163  32.7565

          k =-0.1111 0.8889-0.1111 (   436 PWs)   bands (ev):

   -65.8608 -32.2186 -32.2186 -32.1279  16.5738  16.5738  20.4694  21.5712
    21.5712  29.5832  29.5832  30.4650

          k = 0.0000 0.0000 0.8889 (   442 PWs)   bands (ev):

   -65.8524 -32.2118 -32.2002 -32.2002  16.3230  16.3607  21.5209  21.5209
    21.7186  28.9100  30.8703  30.8703

     the Fermi energy is    19.6488 ev

!    total energy              =    -329.26088850 Ry
     Harris-Foulkes estimate   =    -329.26088849 Ry
     estimated scf accuracy    <          3.9E-10 Ry

     total all-electron energy =     -2545.557424 Ry

     The total energy is the sum of the following terms:

     one-electron contribution =    -104.20615683 Ry
     hartree contribution      =      63.41675752 Ry
     xc contribution           =     -34.86349142 Ry
     ewald contribution        =    -177.45595488 Ry
     one-center paw contrib.   =     -76.15298366 Ry
     smearing contrib. (-TS)   =       0.00094077 Ry

     total magnetization       =     2.04 Bohr mag/cell
     absolute magnetization    =     2.13 Bohr mag/cell

     convergence has been achieved in  13 iterations

     Forces acting on atoms (Ry/au):


     negative rho (up, down):  0.000E+00 9.197E-05
     atom    1 type  1   force =     0.00000000    0.00000000    0.00000000

     Total force =     0.000000     Total SCF correction =     0.000000


     entering subroutine stress ...


     negative rho (up, down):  0.000E+00 9.197E-05
          total   stress  (Ry/bohr**3)                   (kbar)     P=   37.44
   0.00025452  -0.00000000   0.00000000         37.44     -0.00      0.00
  -0.00000000   0.00025452  -0.00000000         -0.00     37.44     -0.00
   0.00000000  -0.00000000   0.00025452          0.00     -0.00     37.44


     Writing output data file Fe_bcc.save

     init_run     :      1.49s CPU      1.55s WALL (       1 calls)
     electrons    :     23.72s CPU     24.02s WALL (       1 calls)
     forces       :      0.13s CPU      0.13s WALL (       1 calls)
     stress       :      0.45s CPU      0.46s WALL (       1 calls)

     Called by init_run:
     wfcinit      :      0.48s CPU      0.48s WALL (       1 calls)
     potinit      :      0.51s CPU      0.53s WALL (       1 calls)

     Called by electrons:
     c_bands      :     14.48s CPU     14.58s WALL (      13 calls)
     sum_band     :      2.68s CPU      2.72s WALL (      13 calls)
     v_of_rho     :      0.30s CPU      0.31s WALL (      14 calls)
     newd         :      0.19s CPU      0.20s WALL (      14 calls)
     mix_rho      :      0.03s CPU      0.04s WALL (      13 calls)

     Called by c_bands:
     init_us_2    :      0.31s CPU      0.31s WALL (    2030 calls)
     cegterg      :     13.88s CPU     13.96s WALL (     910 calls)

     Called by *egterg:
     h_psi        :     11.86s CPU     11.99s WALL (    2939 calls)
     s_psi        :      0.32s CPU      0.26s WALL (    2939 calls)
     g_psi        :      0.07s CPU      0.07s WALL (    1959 calls)
     cdiaghg      :      0.83s CPU      0.84s WALL (    2869 calls)

     Called by h_psi:
     add_vuspsi   :      0.32s CPU      0.28s WALL (    2939 calls)

     General routines
     calbec       :      0.33s CPU      0.34s WALL (    3989 calls)
     fft          :      0.16s CPU      0.16s WALL (     468 calls)
     ffts         :      0.02s CPU      0.02s WALL (      54 calls)
     fftw         :     12.05s CPU     12.18s WALL (   64554 calls)
     interpolate  :      0.04s CPU      0.04s WALL (      54 calls)
     davcio       :      0.00s CPU      0.00s WALL (      70 calls)


     PAW routines
     PAW_pot      :      6.52s CPU      6.66s WALL (      14 calls)
     PAW_symme    :      0.02s CPU      0.02s WALL (      27 calls)

     PWSCF        :    26.31s CPU        26.76s WALL


   This run was terminated on:  14:39:56  12May2015            

=------------------------------------------------------------------------------=
   JOB DONE.
=------------------------------------------------------------------------------=
