
     Program PWSCF v.5.1.2 starts on 12May2015 at 14:46:17 

     This program is part of the open-source Quantum ESPRESSO suite
     for quantum simulation of materials; please cite
         "P. Giannozzi et al., J. Phys.:Condens. Matter 21 395502 (2009);
          URL http://www.quantum-espresso.org", 
     in publications or presentations arising from this work. More details at
     http://www.quantum-espresso.org/quote

     Serial version
     Reading input from Fe_bcc_5.55_9.pw.in

     Current dimensions of program PWSCF are:
     Max number of different atomic species (ntypx) = 10
     Max number of k-points (npk) =  40000
     Max angular momentum in pseudopotentials (lmaxx) =  3
               file Fe.pbe-spn-kjpaw_psl.0.2.1.UPF: wavefunction(s)  3D renormalized

     G-vector sticks info
     --------------------
     sticks:   dense  smooth     PW     G-vecs:    dense   smooth      PW
     Sum         435     345    117                 5721     4093     767

     Generating pointlists ...
     new r_m :   0.3572 (alat units)  1.9827 (a.u.) for type    1


     bravais-lattice index     =            3
     lattice parameter (alat)  =       5.5500  a.u.
     unit-cell volume          =      85.4769 (a.u.)^3
     number of atoms/cell      =            1
     number of atomic types    =            1
     number of electrons       =        16.00
     number of Kohn-Sham states=           12
     kinetic-energy cutoff     =      50.0000  Ry
     charge density cutoff     =     250.0000  Ry
     convergence threshold     =      1.0E-08
     mixing beta               =       0.7000
     number of iterations used =            8  plain     mixing
     Exchange-correlation      =  SLA  PW   PBX  PBC ( 1  4  3  4 0 0)

     celldm(1)=   5.550000  celldm(2)=   0.000000  celldm(3)=   0.000000
     celldm(4)=   0.000000  celldm(5)=   0.000000  celldm(6)=   0.000000

     crystal axes: (cart. coord. in units of alat)
               a(1) = (   0.500000   0.500000   0.500000 )  
               a(2) = (  -0.500000   0.500000   0.500000 )  
               a(3) = (  -0.500000  -0.500000   0.500000 )  

     reciprocal axes: (cart. coord. in units 2 pi/alat)
               b(1) = (  1.000000  0.000000  1.000000 )  
               b(2) = ( -1.000000  1.000000  0.000000 )  
               b(3) = (  0.000000 -1.000000  1.000000 )  


     PseudoPot. # 1 for Fe read from file:
     ./Fe.pbe-spn-kjpaw_psl.0.2.1.UPF
     MD5 check sum: a0a08122d52b112de96d1da1d7dd020f
     Pseudo is Projector augmented-wave + core cor, Zval = 16.0
     Generated using "atomic" code by A. Dal Corso  v.5.0.2 svn rev. 9415
     Shape of augmentation charge: PSQ
     Using radial grid of 1191 points,  6 beta functions with: 
                l(1) =   0
                l(2) =   0
                l(3) =   1
                l(4) =   1
                l(5) =   2
                l(6) =   2
     Q(r) pseudized with 0 coefficients 


     atomic species   valence    mass     pseudopotential
        Fe            16.00    55.85000     Fe( 1.00)

     Starting magnetic structure 
     atomic species   magnetization
        Fe           0.700

     48 Sym. Ops., with inversion, found



   Cartesian axes

     site n.     atom                  positions (alat units)
         1           Fe  tau(   1) = (   0.0000000   0.0000000   0.0000000  )

     number of k points=    70  Marzari-Vanderbilt smearing, width (Ry)=  0.0250
                       cart. coord. in units 2pi/alat
        k(    1) = (   0.0000000   0.0000000   0.0000000), wk =   0.0013717
        k(    2) = (   0.0000000  -0.1111111   0.1111111), wk =   0.0164609
        k(    3) = (   0.0000000  -0.2222222   0.2222222), wk =   0.0164609
        k(    4) = (   0.0000000  -0.3333333   0.3333333), wk =   0.0164609
        k(    5) = (   0.0000000  -0.4444444   0.4444444), wk =   0.0164609
        k(    6) = (  -0.1111111  -0.1111111   0.2222222), wk =   0.0329218
        k(    7) = (  -0.1111111  -0.2222222   0.3333333), wk =   0.0658436
        k(    8) = (  -0.1111111  -0.3333333   0.4444444), wk =   0.0658436
        k(    9) = (  -0.1111111   0.5555556  -0.4444444), wk =   0.0329218
        k(   10) = (  -0.2222222  -0.2222222   0.4444444), wk =   0.0329218
        k(   11) = (  -0.2222222   0.6666667  -0.4444444), wk =   0.0658436
        k(   12) = (  -0.3333333   0.6666667  -0.3333333), wk =   0.0109739
        k(   13) = (   0.0000000   0.0000000   0.2222222), wk =   0.0082305
        k(   14) = (   0.0000000  -0.1111111   0.3333333), wk =   0.0329218
        k(   15) = (   0.0000000  -0.2222222   0.4444444), wk =   0.0329218
        k(   16) = (   0.0000000  -0.3333333   0.5555556), wk =   0.0329218
        k(   17) = (  -0.1111111  -0.1111111   0.4444444), wk =   0.0329218
        k(   18) = (  -0.1111111  -0.2222222   0.5555556), wk =   0.0658436
        k(   19) = (  -0.1111111   0.6666667  -0.3333333), wk =   0.0329218
        k(   20) = (  -0.2222222   0.2222222   0.2222222), wk =   0.0109739
        k(   21) = (  -0.2222222   0.7777778  -0.3333333), wk =   0.0329218
        k(   22) = (  -0.3333333   0.3333333   0.2222222), wk =   0.0329218
        k(   23) = (   0.5555556  -0.5555556   0.2222222), wk =   0.0329218
        k(   24) = (   0.5555556  -0.6666667   0.3333333), wk =   0.0329218
        k(   25) = (   0.4444444  -0.5555556   0.3333333), wk =   0.0329218
        k(   26) = (   0.0000000   0.0000000   0.4444444), wk =   0.0082305
        k(   27) = (   0.0000000  -0.1111111   0.5555556), wk =   0.0329218
        k(   28) = (   0.0000000  -0.2222222   0.6666667), wk =   0.0329218
        k(   29) = (  -0.1111111  -0.1111111   0.6666667), wk =   0.0329218
        k(   30) = (  -0.1111111   0.7777778  -0.2222222), wk =   0.0329218
        k(   31) = (   0.5555556  -0.5555556   0.4444444), wk =   0.0109739
        k(   32) = (   0.0000000   0.0000000   0.6666667), wk =   0.0082305
        k(   33) = (   0.0000000  -0.1111111   0.7777778), wk =   0.0329218
        k(   34) = (  -0.1111111   0.8888889  -0.1111111), wk =   0.0109739
        k(   35) = (   0.0000000   0.0000000   0.8888889), wk =   0.0082305
        k(   36) = (   0.0000000   0.0000000   0.0000000), wk =   0.0013717
        k(   37) = (   0.0000000  -0.1111111   0.1111111), wk =   0.0164609
        k(   38) = (   0.0000000  -0.2222222   0.2222222), wk =   0.0164609
        k(   39) = (   0.0000000  -0.3333333   0.3333333), wk =   0.0164609
        k(   40) = (   0.0000000  -0.4444444   0.4444444), wk =   0.0164609
        k(   41) = (  -0.1111111  -0.1111111   0.2222222), wk =   0.0329218
        k(   42) = (  -0.1111111  -0.2222222   0.3333333), wk =   0.0658436
        k(   43) = (  -0.1111111  -0.3333333   0.4444444), wk =   0.0658436
        k(   44) = (  -0.1111111   0.5555556  -0.4444444), wk =   0.0329218
        k(   45) = (  -0.2222222  -0.2222222   0.4444444), wk =   0.0329218
        k(   46) = (  -0.2222222   0.6666667  -0.4444444), wk =   0.0658436
        k(   47) = (  -0.3333333   0.6666667  -0.3333333), wk =   0.0109739
        k(   48) = (   0.0000000   0.0000000   0.2222222), wk =   0.0082305
        k(   49) = (   0.0000000  -0.1111111   0.3333333), wk =   0.0329218
        k(   50) = (   0.0000000  -0.2222222   0.4444444), wk =   0.0329218
        k(   51) = (   0.0000000  -0.3333333   0.5555556), wk =   0.0329218
        k(   52) = (  -0.1111111  -0.1111111   0.4444444), wk =   0.0329218
        k(   53) = (  -0.1111111  -0.2222222   0.5555556), wk =   0.0658436
        k(   54) = (  -0.1111111   0.6666667  -0.3333333), wk =   0.0329218
        k(   55) = (  -0.2222222   0.2222222   0.2222222), wk =   0.0109739
        k(   56) = (  -0.2222222   0.7777778  -0.3333333), wk =   0.0329218
        k(   57) = (  -0.3333333   0.3333333   0.2222222), wk =   0.0329218
        k(   58) = (   0.5555556  -0.5555556   0.2222222), wk =   0.0329218
        k(   59) = (   0.5555556  -0.6666667   0.3333333), wk =   0.0329218
        k(   60) = (   0.4444444  -0.5555556   0.3333333), wk =   0.0329218
        k(   61) = (   0.0000000   0.0000000   0.4444444), wk =   0.0082305
        k(   62) = (   0.0000000  -0.1111111   0.5555556), wk =   0.0329218
        k(   63) = (   0.0000000  -0.2222222   0.6666667), wk =   0.0329218
        k(   64) = (  -0.1111111  -0.1111111   0.6666667), wk =   0.0329218
        k(   65) = (  -0.1111111   0.7777778  -0.2222222), wk =   0.0329218
        k(   66) = (   0.5555556  -0.5555556   0.4444444), wk =   0.0109739
        k(   67) = (   0.0000000   0.0000000   0.6666667), wk =   0.0082305
        k(   68) = (   0.0000000  -0.1111111   0.7777778), wk =   0.0329218
        k(   69) = (  -0.1111111   0.8888889  -0.1111111), wk =   0.0109739
        k(   70) = (   0.0000000   0.0000000   0.8888889), wk =   0.0082305

     Dense  grid:     5721 G-vectors     FFT dimensions: (  25,  25,  25)

     Smooth grid:     4093 G-vectors     FFT dimensions: (  24,  24,  24)

     Largest allocated arrays     est. size (Mb)     dimensions
        Kohn-Sham Wavefunctions         0.10 Mb     (     531,   12)
        NL pseudopotentials             0.15 Mb     (     531,   18)
        Each V/rho on FFT grid          0.48 Mb     (   15625,   2)
        Each G-vector array             0.04 Mb     (    5721)
        G-vector shells                 0.00 Mb     (      91)
     Largest temporary arrays     est. size (Mb)     dimensions
        Auxiliary wavefunctions         0.39 Mb     (     531,   48)
        Each subspace H/S matrix        0.04 Mb     (      48,   48)
        Each <psi_i|beta_j> matrix      0.00 Mb     (      18,   12)
        Arrays for rho mixing           1.91 Mb     (   15625,    8)

     Check: negative/imaginary core charge=   -0.000400    0.000000

     Initial potential from superposition of free atoms

     starting charge   15.99956, renormalised to   16.00000
     Starting wfc are   13 randomized atomic wfcs

     total cpu time spent up to now is        2.1 secs

     Self-consistent Calculation

     iteration #  1     ecut=    50.00 Ry     beta=0.70
     Davidson diagonalization with overlap
     ethr =  1.00E-02,  avg # of iterations =  3.0

     negative rho (up, down):  0.000E+00 3.552E-04

     Magnetic moment per site:
     atom:    1    charge:   14.3335    magn:    5.7634    constr:    0.0000

     total cpu time spent up to now is        4.3 secs

     total energy              =    -328.98801012 Ry
     Harris-Foulkes estimate   =    -328.08578074 Ry
     estimated scf accuracy    <       1.48323731 Ry

     total magnetization       =     3.92 Bohr mag/cell
     absolute magnetization    =     3.96 Bohr mag/cell

     iteration #  2     ecut=    50.00 Ry     beta=0.70
     Davidson diagonalization with overlap
     ethr =  9.27E-03,  avg # of iterations =  1.3

     negative rho (up, down):  0.000E+00 3.706E-04

     Magnetic moment per site:
     atom:    1    charge:   14.5708    magn:    3.6581    constr:    0.0000

     total cpu time spent up to now is        6.1 secs

     total energy              =    -329.14705369 Ry
     Harris-Foulkes estimate   =    -329.10996171 Ry
     estimated scf accuracy    <       0.37073301 Ry

     total magnetization       =     3.11 Bohr mag/cell
     absolute magnetization    =     3.25 Bohr mag/cell

     iteration #  3     ecut=    50.00 Ry     beta=0.70
     Davidson diagonalization with overlap
     ethr =  2.32E-03,  avg # of iterations =  2.1

     negative rho (up, down):  0.000E+00 3.910E-04

     Magnetic moment per site:
     atom:    1    charge:   14.4550    magn:    2.6051    constr:    0.0000

     total cpu time spent up to now is        8.2 secs

     total energy              =    -329.17069026 Ry
     Harris-Foulkes estimate   =    -329.34990780 Ry
     estimated scf accuracy    <       0.51531103 Ry

     total magnetization       =     2.70 Bohr mag/cell
     absolute magnetization    =     2.85 Bohr mag/cell

     iteration #  4     ecut=    50.00 Ry     beta=0.70
     Davidson diagonalization with overlap
     ethr =  2.32E-03,  avg # of iterations =  2.0

     negative rho (up, down):  0.000E+00 2.876E-04

     Magnetic moment per site:
     atom:    1    charge:   14.4895    magn:    2.6062    constr:    0.0000

     total cpu time spent up to now is       10.2 secs

     total energy              =    -329.25511013 Ry
     Harris-Foulkes estimate   =    -329.25459425 Ry
     estimated scf accuracy    <       0.00102992 Ry

     total magnetization       =     2.53 Bohr mag/cell
     absolute magnetization    =     2.71 Bohr mag/cell

     iteration #  5     ecut=    50.00 Ry     beta=0.70
     Davidson diagonalization with overlap
     ethr =  6.44E-06,  avg # of iterations =  3.7

     negative rho (up, down):  0.000E+00 2.847E-04

     Magnetic moment per site:
     atom:    1    charge:   14.4878    magn:    2.5926    constr:    0.0000

     total cpu time spent up to now is       12.7 secs

     total energy              =    -329.25709439 Ry
     Harris-Foulkes estimate   =    -329.25698035 Ry
     estimated scf accuracy    <       0.00036880 Ry

     total magnetization       =     2.49 Bohr mag/cell
     absolute magnetization    =     2.66 Bohr mag/cell

     iteration #  6     ecut=    50.00 Ry     beta=0.70
     Davidson diagonalization with overlap
     ethr =  2.31E-06,  avg # of iterations =  1.0

     negative rho (up, down):  0.000E+00 3.000E-04

     Magnetic moment per site:
     atom:    1    charge:   14.4886    magn:    2.6354    constr:    0.0000

     total cpu time spent up to now is       14.4 secs

     total energy              =    -329.25680420 Ry
     Harris-Foulkes estimate   =    -329.25711772 Ry
     estimated scf accuracy    <       0.00029353 Ry

     total magnetization       =     2.48 Bohr mag/cell
     absolute magnetization    =     2.64 Bohr mag/cell

     iteration #  7     ecut=    50.00 Ry     beta=0.70
     Davidson diagonalization with overlap
     ethr =  1.83E-06,  avg # of iterations =  1.0

     negative rho (up, down):  0.000E+00 2.444E-04

     Magnetic moment per site:
     atom:    1    charge:   14.4815    magn:    2.4731    constr:    0.0000

     total cpu time spent up to now is       16.3 secs

     total energy              =    -329.25674751 Ry
     Harris-Foulkes estimate   =    -329.25683532 Ry
     estimated scf accuracy    <       0.00052673 Ry

     total magnetization       =     2.50 Bohr mag/cell
     absolute magnetization    =     2.67 Bohr mag/cell

     iteration #  8     ecut=    50.00 Ry     beta=0.70
     Davidson diagonalization with overlap
     ethr =  1.83E-06,  avg # of iterations =  2.0

     negative rho (up, down):  0.000E+00 2.308E-04

     Magnetic moment per site:
     atom:    1    charge:   14.4815    magn:    2.4339    constr:    0.0000

     total cpu time spent up to now is       18.3 secs

     total energy              =    -329.25745917 Ry
     Harris-Foulkes estimate   =    -329.25736130 Ry
     estimated scf accuracy    <       0.00001971 Ry

     total magnetization       =     2.39 Bohr mag/cell
     absolute magnetization    =     2.54 Bohr mag/cell

     iteration #  9     ecut=    50.00 Ry     beta=0.70
     Davidson diagonalization with overlap
     ethr =  1.23E-07,  avg # of iterations =  2.6

     negative rho (up, down):  0.000E+00 2.259E-04

     Magnetic moment per site:
     atom:    1    charge:   14.4816    magn:    2.4131    constr:    0.0000

     total cpu time spent up to now is       20.3 secs

     total energy              =    -329.25758431 Ry
     Harris-Foulkes estimate   =    -329.25753084 Ry
     estimated scf accuracy    <       0.00001788 Ry

     total magnetization       =     2.35 Bohr mag/cell
     absolute magnetization    =     2.50 Bohr mag/cell

     iteration # 10     ecut=    50.00 Ry     beta=0.70
     Davidson diagonalization with overlap
     ethr =  1.12E-07,  avg # of iterations =  1.9

     negative rho (up, down):  0.000E+00 2.206E-04

     Magnetic moment per site:
     atom:    1    charge:   14.4818    magn:    2.3895    constr:    0.0000

     total cpu time spent up to now is       22.1 secs

     total energy              =    -329.25761961 Ry
     Harris-Foulkes estimate   =    -329.25760369 Ry
     estimated scf accuracy    <       0.00001225 Ry

     total magnetization       =     2.34 Bohr mag/cell
     absolute magnetization    =     2.48 Bohr mag/cell

     iteration # 11     ecut=    50.00 Ry     beta=0.70
     Davidson diagonalization with overlap
     ethr =  7.66E-08,  avg # of iterations =  1.6

     negative rho (up, down):  0.000E+00 2.142E-04

     Magnetic moment per site:
     atom:    1    charge:   14.4815    magn:    2.3659    constr:    0.0000

     total cpu time spent up to now is       23.9 secs

     total energy              =    -329.25763980 Ry
     Harris-Foulkes estimate   =    -329.25763750 Ry
     estimated scf accuracy    <       0.00000632 Ry

     total magnetization       =     2.32 Bohr mag/cell
     absolute magnetization    =     2.46 Bohr mag/cell

     iteration # 12     ecut=    50.00 Ry     beta=0.70
     Davidson diagonalization with overlap
     ethr =  3.95E-08,  avg # of iterations =  2.2

     negative rho (up, down):  0.000E+00 2.000E-04

     Magnetic moment per site:
     atom:    1    charge:   14.4814    magn:    2.3123    constr:    0.0000

     total cpu time spent up to now is       25.8 secs

     total energy              =    -329.25755744 Ry
     Harris-Foulkes estimate   =    -329.25765685 Ry
     estimated scf accuracy    <       0.00000156 Ry

     total magnetization       =     2.30 Bohr mag/cell
     absolute magnetization    =     2.44 Bohr mag/cell

     iteration # 13     ecut=    50.00 Ry     beta=0.70
     Davidson diagonalization with overlap
     ethr =  9.72E-09,  avg # of iterations =  3.4

     negative rho (up, down):  0.000E+00 2.082E-04

     Magnetic moment per site:
     atom:    1    charge:   14.4815    magn:    2.3430    constr:    0.0000

     total cpu time spent up to now is       28.0 secs

     total energy              =    -329.25766356 Ry
     Harris-Foulkes estimate   =    -329.25762585 Ry
     estimated scf accuracy    <       0.00000556 Ry

     total magnetization       =     2.26 Bohr mag/cell
     absolute magnetization    =     2.40 Bohr mag/cell

     iteration # 14     ecut=    50.00 Ry     beta=0.70
     Davidson diagonalization with overlap
     ethr =  9.72E-09,  avg # of iterations =  2.5

     negative rho (up, down):  0.000E+00 2.065E-04

     Magnetic moment per site:
     atom:    1    charge:   14.4815    magn:    2.3369    constr:    0.0000

     total cpu time spent up to now is       30.1 secs

     total energy              =    -329.25767798 Ry
     Harris-Foulkes estimate   =    -329.25767726 Ry
     estimated scf accuracy    <       0.00000086 Ry

     total magnetization       =     2.28 Bohr mag/cell
     absolute magnetization    =     2.42 Bohr mag/cell

     iteration # 15     ecut=    50.00 Ry     beta=0.70
     Davidson diagonalization with overlap
     ethr =  5.41E-09,  avg # of iterations =  1.5

     negative rho (up, down):  0.000E+00 2.048E-04

     Magnetic moment per site:
     atom:    1    charge:   14.4815    magn:    2.3301    constr:    0.0000

     total cpu time spent up to now is       31.9 secs

     total energy              =    -329.25767801 Ry
     Harris-Foulkes estimate   =    -329.25767881 Ry
     estimated scf accuracy    <       0.00000022 Ry

     total magnetization       =     2.27 Bohr mag/cell
     absolute magnetization    =     2.41 Bohr mag/cell

     iteration # 16     ecut=    50.00 Ry     beta=0.70
     Davidson diagonalization with overlap
     ethr =  1.35E-09,  avg # of iterations =  2.2

     negative rho (up, down):  0.000E+00 2.048E-04

     Magnetic moment per site:
     atom:    1    charge:   14.4815    magn:    2.3301    constr:    0.0000

     total cpu time spent up to now is       34.0 secs

     End of self-consistent calculation

 ------ SPIN UP ------------


          k = 0.0000 0.0000 0.0000 (   531 PWs)   bands (ev):

   -72.0311 -37.9058 -37.9058 -37.9058   8.0692  13.9255  13.9255  13.9255
    14.7357  14.7357  39.8159  39.8159

          k = 0.0000-0.1111 0.1111 (   517 PWs)   bands (ev):

   -72.0248 -37.9380 -37.9165 -37.9052   8.5407  13.8104  13.9044  14.1595
    14.6451  14.7453  36.8642  38.8920

          k = 0.0000-0.2222 0.2222 (   517 PWs)   bands (ev):

   -72.0102 -38.0234 -37.9451 -37.9053   9.8129  13.5269  13.7586  14.6366
    14.7789  14.7886  31.8619  36.5984

          k = 0.0000-0.3333 0.3333 (   519 PWs)   bands (ev):

   -71.9937 -38.1187 -37.9786 -37.9049  11.1761  13.2175  14.1037  14.8335
    14.8469  15.5826  26.9457  34.6082

          k = 0.0000-0.4444 0.4444 (   516 PWs)   bands (ev):

   -71.9827 -38.1805 -37.9997 -37.9049  11.5353  13.0224  14.8268  14.8791
    16.0369  16.1604  23.0958  33.5126

          k =-0.1111-0.1111 0.2222 (   515 PWs)   bands (ev):

   -72.0145 -37.9968 -37.9289 -37.9133   9.4228  13.6718  13.7028  14.5491
    14.6469  14.8089  34.2008  35.2506

          k =-0.1111-0.2222 0.3333 (   516 PWs)   bands (ev):

   -71.9990 -38.0802 -37.9636 -37.9166  10.8618  13.3537  13.5607  14.6285
    14.9009  15.5105  29.5610  32.8394

          k =-0.1111-0.3333 0.4444 (   510 PWs)   bands (ev):

   -71.9850 -38.1500 -37.9978 -37.9171  11.7078  13.1186  14.0924  14.8286
    15.1492  16.7108  24.9932  31.4577

          k =-0.1111 0.5556-0.4444 (   511 PWs)   bands (ev):

   -71.9796 -38.1777 -38.0117 -37.9173  11.7645  13.0332  14.4551  14.8426
    15.5585  17.9336  22.4458  30.9525

          k =-0.2222-0.2222 0.4444 (   509 PWs)   bands (ev):

   -71.9860 -38.1262 -38.0007 -37.9304  12.0121  13.0457  13.5245  14.7143
    15.0575  16.9285  27.6118  28.2065

          k =-0.2222 0.6667-0.4444 (   507 PWs)   bands (ev):

   -71.9776 -38.1448 -38.0408 -37.9352  12.3200  13.0307  13.6534  14.8770
    15.2535  19.1316  23.6980  26.9960

          k =-0.3333 0.6667-0.3333 (   499 PWs)   bands (ev):

   -71.9744 -38.1007 -38.1007 -37.9405  12.7213  13.1409  13.1409  15.1043
    15.1043  22.1805  22.1805  24.3142

          k = 0.0000 0.0000 0.2222 (   515 PWs)   bands (ev):

   -72.0191 -37.9468 -37.9280 -37.9280   8.9916  13.9401  13.9401  14.1621
    14.3719  14.8775  36.1836  37.8045

          k = 0.0000-0.1111 0.3333 (   513 PWs)   bands (ev):

   -72.0048 -38.0217 -37.9570 -37.9323  10.2099  13.7233  13.7482  14.3270
    14.7340  15.0269  32.1831  35.6185

          k = 0.0000-0.2222 0.4444 (   513 PWs)   bands (ev):

   -71.9888 -38.1123 -37.9906 -37.9307  11.4794  13.4703  13.5369  14.6677
    15.5372  15.5384  27.2778  33.6899

          k = 0.0000-0.3333 0.5556 (   512 PWs)   bands (ev):

   -71.9782 -38.1715 -38.0125 -37.9292  11.7820  13.2919  13.8542  14.7149
    16.1306  17.2907  23.2718  32.4956

          k =-0.1111-0.1111 0.4444 (   513 PWs)   bands (ev):

   -71.9902 -38.0813 -37.9915 -37.9489  11.4210  13.2554  13.8250  14.4028
    15.1594  15.6865  29.9738  30.6118

          k =-0.1111-0.2222 0.5556 (   508 PWs)   bands (ev):

   -71.9771 -38.1385 -38.0285 -37.9502  12.1312  13.0462  13.6589  14.6888
    15.6007  17.4685  25.5685  28.9204

          k =-0.1111 0.6667-0.3333 (   511 PWs)   bands (ev):

   -71.9721 -38.1616 -38.0439 -37.9504  12.1403  13.3032  13.4171  14.7540
    15.9033  19.4102  22.6501  28.3930

          k =-0.2222 0.2222 0.2222 (   522 PWs)   bands (ev):

   -72.0032 -38.0678 -37.9323 -37.9323  10.6039  13.3584  13.3584  14.7456
    14.7456  15.5407  32.0577  32.0577

          k =-0.2222 0.7778-0.3333 (   504 PWs)   bands (ev):

   -71.9694 -38.1338 -38.0817 -37.9563  12.6945  12.6981  13.3685  15.0868
    15.5385  20.3418  24.0612  25.1118

          k =-0.3333 0.3333 0.2222 (   513 PWs)   bands (ev):

   -71.9897 -38.1238 -37.9759 -37.9350  11.9241  13.0927  13.3392  14.8124
    14.8521  16.8301  27.5435  30.5098

          k = 0.5556-0.5556 0.2222 (   507 PWs)   bands (ev):

   -71.9808 -38.1512 -38.0132 -37.9365  12.1395  12.9536  14.1922  14.8934
    14.8971  18.6671  23.4960  29.6942

          k = 0.5556-0.6667 0.3333 (   508 PWs)   bands (ev):

   -71.9814 -38.1295 -38.0115 -37.9580  12.6405  12.9814  13.3708  14.8824
    14.9274  18.8648  25.9482  26.5620

          k = 0.4444-0.5556 0.3333 (   514 PWs)   bands (ev):

   -71.9784 -38.1139 -38.0479 -37.9641  12.6387  12.9971  13.6099  14.9334
    14.9539  21.1267  22.9879  25.8573

          k = 0.0000 0.0000 0.4444 (   514 PWs)   bands (ev):

   -71.9918 -38.0322 -37.9877 -37.9877  11.1841  13.4346  14.1814  14.1814
    14.7706  15.4677  32.9430  32.9430

          k = 0.0000-0.1111 0.5556 (   511 PWs)   bands (ev):

   -71.9768 -38.0985 -38.0223 -37.9953  12.0232  12.8946  14.1522  14.5176
    15.4402  16.6586  28.1957  30.8280

          k = 0.0000-0.2222 0.6667 (   508 PWs)   bands (ev):

   -71.9669 -38.1500 -38.0450 -37.9914  12.1458  12.7795  14.0391  14.6406
    16.0556  19.1445  23.9096  29.5711

          k =-0.1111-0.1111 0.6667 (   510 PWs)   bands (ev):

   -71.9650 -38.1257 -38.0652 -38.0081  12.2876  12.4421  14.1957  14.9709
    15.7434  18.9406  26.5006  26.9441

          k =-0.1111 0.7778-0.2222 (   508 PWs)   bands (ev):

   -71.9603 -38.1359 -38.0872 -38.0082  12.2144  12.4059  14.1100  15.2173
    15.9134  21.6353  23.2493  26.1829

          k = 0.5556-0.5556 0.4444 (   514 PWs)   bands (ev):

   -71.9786 -38.0898 -38.0185 -38.0185  13.0085  13.0085  13.2773  14.9145
    14.9145  21.5816  25.0885  25.0885

          k = 0.0000 0.0000 0.6667 (   510 PWs)   bands (ev):

   -71.9632 -38.0927 -38.0586 -38.0586  12.1051  12.3647  14.9091  14.9091
    15.4781  18.4084  28.5150  28.5150

          k = 0.0000-0.1111 0.7778 (   506 PWs)   bands (ev):

   -71.9542 -38.1255 -38.0820 -38.0624  11.9757  12.0439  15.0498  15.2394
    15.9720  21.1974  25.0750  27.1329

          k =-0.1111 0.8889-0.1111 (   493 PWs)   bands (ev):

   -71.9495 -38.1143 -38.1143 -38.0672  11.8580  11.8580  15.1419  15.8608
    15.8608  24.0786  24.0786  24.9085

          k = 0.0000 0.0000 0.8889 (   490 PWs)   bands (ev):

   -71.9453 -38.1109 -38.1060 -38.1060  11.6757  11.6762  15.8351  15.8351
    15.9481  23.6226  25.6284  25.6284

 ------ SPIN DOWN ----------


          k = 0.0000 0.0000 0.0000 (   531 PWs)   bands (ev):

   -69.2925 -35.2161 -35.2161 -35.2161   8.2102  15.7380  15.7380  15.7380
    17.8711  17.8711  39.5040  39.5040

          k = 0.0000-0.1111 0.1111 (   517 PWs)   bands (ev):

   -69.2858 -35.2527 -35.2280 -35.2156   8.6847  15.5982  15.7072  15.9941
    17.7252  17.8824  36.9978  38.7906

          k = 0.0000-0.2222 0.2222 (   517 PWs)   bands (ev):

   -69.2698 -35.3483 -35.2599 -35.2156   9.9986  15.2566  15.5514  16.6880
    17.5279  17.9272  32.3940  36.6802

          k = 0.0000-0.3333 0.3333 (   519 PWs)   bands (ev):

   -69.2516 -35.4551 -35.2968 -35.2153  11.7234  14.8878  15.5004  17.5407
    17.5771  18.0078  27.7679  34.6746

          k = 0.0000-0.4444 0.4444 (   516 PWs)   bands (ev):

   -69.2396 -35.5241 -35.3201 -35.2154  12.7436  14.6573  16.2896  17.6238
    18.0791  18.2369  24.3090  33.5368

          k =-0.1111-0.1111 0.2222 (   515 PWs)   bands (ev):

   -69.2745 -35.3184 -35.2420 -35.2246   9.5836  15.4244  15.5050  16.5148
    17.5174  17.9447  34.5485  35.5873

          k =-0.1111-0.2222 0.3333 (   516 PWs)   bands (ev):

   -69.2574 -35.4118 -35.2804 -35.2283  11.1610  15.0693  15.2711  17.3829
    17.4265  18.0543  30.2128  33.2573

          k =-0.1111-0.3333 0.4444 (   510 PWs)   bands (ev):

   -69.2422 -35.4901 -35.3184 -35.2290  12.6644  14.7611  15.4344  17.5272
    18.0270  18.5402  25.9433  31.8739

          k =-0.1111 0.5556-0.4444 (   511 PWs)   bands (ev):

   -69.2363 -35.5209 -35.3339 -35.2292  13.0920  14.6494  15.9293  17.6022
    18.1145  19.2435  23.7452  31.3585

          k =-0.2222-0.2222 0.4444 (   509 PWs)   bands (ev):

   -69.2433 -35.4632 -35.3221 -35.2437  12.6983  14.8068  15.0059  17.4225
    17.9821  18.7840  28.3626  28.8319

          k =-0.2222 0.6667-0.4444 (   507 PWs)   bands (ev):

   -69.2341 -35.4840 -35.3670 -35.2490  13.6383  14.6544  15.1013  17.5807
    17.9904  20.4781  24.7074  27.6595

          k =-0.3333 0.6667-0.3333 (   499 PWs)   bands (ev):

   -69.2307 -35.4344 -35.4344 -35.2551  14.1687  14.7126  14.7126  17.7887
    17.7887  23.2039  23.2039  25.1783

          k = 0.0000 0.0000 0.2222 (   515 PWs)   bands (ev):

   -69.2796 -35.2627 -35.2409 -35.2409   9.1429  15.7239  15.7239  16.0006
    17.3642  18.0481  36.3230  38.0353

          k = 0.0000-0.1111 0.3333 (   513 PWs)   bands (ev):

   -69.2640 -35.3466 -35.2731 -35.2458  10.4226  15.4904  15.6382  16.6263
    16.9883  18.1740  32.7238  35.7825

          k = 0.0000-0.2222 0.4444 (   513 PWs)   bands (ev):

   -69.2463 -35.4480 -35.3103 -35.2441  12.0895  15.1596  15.4011  17.0986
    17.5260  18.3450  28.0828  34.1670

          k = 0.0000-0.3333 0.5556 (   512 PWs)   bands (ev):

   -69.2347 -35.5140 -35.3345 -35.2425  13.0885  14.9487  15.6229  17.2932
    18.2030  19.0002  24.4342  33.0141

          k =-0.1111-0.1111 0.4444 (   513 PWs)   bands (ev):

   -69.2479 -35.4131 -35.3115 -35.2642  11.8704  15.3146  15.5030  16.7627
    17.2938  18.4077  30.6721  31.1733

          k =-0.1111-0.2222 0.5556 (   508 PWs)   bands (ev):

   -69.2335 -35.4769 -35.3528 -35.2659  13.2567  14.9508  15.3496  17.0297
    17.8791  19.3238  26.4605  29.5497

          k =-0.1111 0.6667-0.3333 (   511 PWs)   bands (ev):

   -69.2280 -35.5025 -35.3699 -35.2661  13.6904  15.1002  15.1150  17.1654
    18.0908  20.6757  23.8530  29.0122

          k =-0.2222 0.2222 0.2222 (   522 PWs)   bands (ev):

   -69.2620 -35.3978 -35.2457 -35.2457  10.8151  15.0818  15.0818  17.4222
    17.7819  17.7819  32.4903  32.4903

          k =-0.2222 0.7778-0.3333 (   504 PWs)   bands (ev):

   -69.2252 -35.4712 -35.4126 -35.2725  14.2408  14.6068  15.0752  17.3497
    17.8113  21.6208  25.0505  25.8809

          k =-0.3333 0.3333 0.2222 (   513 PWs)   bands (ev):

   -69.2472 -35.4605 -35.2943 -35.2489  12.4616  14.7145  14.8564  17.7505
    17.9859  18.5904  28.2513  30.9464

          k = 0.5556-0.5556 0.2222 (   507 PWs)   bands (ev):

   -69.2376 -35.4912 -35.3360 -35.2508  13.3841  14.5123  15.2569  17.7991
    18.0934  19.9594  24.5390  30.1104

          k = 0.5556-0.6667 0.3333 (   508 PWs)   bands (ev):

   -69.2381 -35.4669 -35.3344 -35.2747  13.7252  14.5161  14.6337  17.8817
    18.0628  20.2638  26.6921  27.2380

          k = 0.4444-0.5556 0.3333 (   514 PWs)   bands (ev):

   -69.2348 -35.4493 -35.3751 -35.2814  14.0044  14.4546  14.8485  17.9461
    18.0789  22.0976  23.9994  26.5481

          k = 0.0000 0.0000 0.4444 (   514 PWs)   bands (ev):

   -69.2497 -35.3586 -35.3072 -35.3072  11.5627  15.9335  15.9335  16.0831
    16.6787  18.4234  33.4816  33.5307

          k = 0.0000-0.1111 0.5556 (   511 PWs)   bands (ev):

   -69.2333 -35.4322 -35.3457 -35.3160  12.9564  15.1928  15.8964  16.4981
    17.4157  18.9252  28.9322  31.3650

          k = 0.0000-0.2222 0.6667 (   508 PWs)   bands (ev):

   -69.2225 -35.4894 -35.3708 -35.3118  13.8097  14.7603  15.7660  16.7739
    18.1180  20.5334  24.9040  30.0668

          k =-0.1111-0.1111 0.6667 (   510 PWs)   bands (ev):

   -69.2205 -35.4621 -35.3936 -35.3301  13.8544  14.6280  15.9661  16.9172
    17.8086  20.4126  27.3162  27.5682

          k =-0.1111 0.7778-0.2222 (   508 PWs)   bands (ev):

   -69.2153 -35.4735 -35.4184 -35.3299  14.2108  14.3893  15.8095  17.2269
    17.9848  22.6720  24.2216  26.8490

          k = 0.5556-0.5556 0.4444 (   514 PWs)   bands (ev):

   -69.2350 -35.4224 -35.3424 -35.3424  14.4015  14.4015  14.4497  18.1036
    18.1036  22.5708  25.8078  25.8078

          k = 0.0000 0.0000 0.6667 (   510 PWs)   bands (ev):

   -69.2185 -35.4255 -35.3861 -35.3861  13.6527  14.6741  16.7209  16.7209
    17.4718  19.9511  29.0099  29.0099

          k = 0.0000-0.1111 0.7778 (   506 PWs)   bands (ev):

   -69.2087 -35.4615 -35.4121 -35.3905  13.9442  14.1757  16.9051  17.1251
    18.0240  22.1721  25.7501  27.5506

          k =-0.1111 0.8889-0.1111 (   493 PWs)   bands (ev):

   -69.2037 -35.4485 -35.4485 -35.3961  13.9432  13.9432  16.9883  17.8819
    17.8819  24.7464  24.7464  25.4184

          k = 0.0000 0.0000 0.8889 (   490 PWs)   bands (ev):

   -69.1993 -35.4447 -35.4390 -35.4390  13.7422  13.7967  17.8401  17.8401
    18.0013  24.1513  25.9190  25.9190

     the Fermi energy is    15.9109 ev

!    total energy              =    -329.25767967 Ry
     Harris-Foulkes estimate   =    -329.25767912 Ry
     estimated scf accuracy    <          1.7E-10 Ry

     total all-electron energy =     -2545.554215 Ry

     The total energy is the sum of the following terms:

     one-electron contribution =    -119.51530780 Ry
     hartree contribution      =      69.03945742 Ry
     xc contribution           =     -34.77264584 Ry
     ewald contribution        =    -167.86374111 Ry
     one-center paw contrib.   =     -76.14768794 Ry
     smearing contrib. (-TS)   =       0.00224560 Ry

     total magnetization       =     2.27 Bohr mag/cell
     absolute magnetization    =     2.41 Bohr mag/cell

     convergence has been achieved in  16 iterations

     Forces acting on atoms (Ry/au):


     negative rho (up, down):  0.000E+00 2.048E-04
     atom    1 type  1   force =     0.00000000    0.00000000    0.00000000

     Total force =     0.000000     Total SCF correction =     0.000000


     entering subroutine stress ...


     negative rho (up, down):  0.000E+00 2.048E-04
          total   stress  (Ry/bohr**3)                   (kbar)     P= -240.97
  -0.00163810  -0.00000000   0.00000000       -240.97     -0.00      0.00
  -0.00000000  -0.00163810  -0.00000000         -0.00   -240.97     -0.00
   0.00000000  -0.00000000  -0.00163810          0.00     -0.00   -240.97


     Writing output data file Fe_bcc.save

     init_run     :      1.63s CPU      1.68s WALL (       1 calls)
     electrons    :     31.54s CPU     31.88s WALL (       1 calls)
     forces       :      0.14s CPU      0.17s WALL (       1 calls)
     stress       :      0.51s CPU      0.52s WALL (       1 calls)

     Called by init_run:
     wfcinit      :      0.53s CPU      0.54s WALL (       1 calls)
     potinit      :      0.55s CPU      0.58s WALL (       1 calls)

     Called by electrons:
     c_bands      :     19.73s CPU     19.66s WALL (      16 calls)
     sum_band     :      3.61s CPU      3.67s WALL (      16 calls)
     v_of_rho     :      0.40s CPU      0.41s WALL (      17 calls)
     newd         :      0.27s CPU      0.29s WALL (      17 calls)
     mix_rho      :      0.05s CPU      0.09s WALL (      16 calls)

     Called by c_bands:
     init_us_2    :      0.44s CPU      0.45s WALL (    2450 calls)
     cegterg      :     18.86s CPU     18.77s WALL (    1120 calls)

     Called by *egterg:
     h_psi        :     16.03s CPU     16.15s WALL (    3567 calls)
     s_psi        :      0.43s CPU      0.35s WALL (    3567 calls)
     g_psi        :      0.10s CPU      0.10s WALL (    2377 calls)
     cdiaghg      :      1.03s CPU      1.04s WALL (    3497 calls)

     Called by h_psi:
     add_vuspsi   :      0.43s CPU      0.37s WALL (    3567 calls)

     General routines
     calbec       :      0.48s CPU      0.49s WALL (    4827 calls)
     fft          :      0.16s CPU      0.17s WALL (     561 calls)
     ffts         :      0.02s CPU      0.02s WALL (      66 calls)
     fftw         :     16.26s CPU     16.43s WALL (   80442 calls)
     interpolate  :      0.05s CPU      0.05s WALL (      66 calls)
     davcio       :      0.00s CPU      0.00s WALL (      70 calls)


     PAW routines
     PAW_pot      :      8.01s CPU      8.29s WALL (      17 calls)
     PAW_symme    :      0.02s CPU      0.02s WALL (      33 calls)

     PWSCF        :    34.32s CPU        34.85s WALL


   This run was terminated on:  14:46:52  12May2015            

=------------------------------------------------------------------------------=
   JOB DONE.
=------------------------------------------------------------------------------=
