
     Program PWSCF v.5.1.2 starts on 12May2015 at 14:38:40 

     This program is part of the open-source Quantum ESPRESSO suite
     for quantum simulation of materials; please cite
         "P. Giannozzi et al., J. Phys.:Condens. Matter 21 395502 (2009);
          URL http://www.quantum-espresso.org", 
     in publications or presentations arising from this work. More details at
     http://www.quantum-espresso.org/quote

     Serial version
     Reading input from Fe_bcc_5.15_9.pw.in

     Current dimensions of program PWSCF are:
     Max number of different atomic species (ntypx) = 10
     Max number of k-points (npk) =  40000
     Max angular momentum in pseudopotentials (lmaxx) =  3
               file Fe.pbe-spn-kjpaw_psl.0.2.1.UPF: wavefunction(s)  3D renormalized

     G-vector sticks info
     --------------------
     sticks:   dense  smooth     PW     G-vecs:    dense   smooth      PW
     Sum         375     303     99                 4537     3319     627

     Generating pointlists ...
     new r_m :   0.3572 (alat units)  1.8398 (a.u.) for type    1


     bravais-lattice index     =            3
     lattice parameter (alat)  =       5.1500  a.u.
     unit-cell volume          =      68.2954 (a.u.)^3
     number of atoms/cell      =            1
     number of atomic types    =            1
     number of electrons       =        16.00
     number of Kohn-Sham states=           12
     kinetic-energy cutoff     =      50.0000  Ry
     charge density cutoff     =     250.0000  Ry
     convergence threshold     =      1.0E-08
     mixing beta               =       0.7000
     number of iterations used =            8  plain     mixing
     Exchange-correlation      =  SLA  PW   PBX  PBC ( 1  4  3  4 0 0)

     celldm(1)=   5.150000  celldm(2)=   0.000000  celldm(3)=   0.000000
     celldm(4)=   0.000000  celldm(5)=   0.000000  celldm(6)=   0.000000

     crystal axes: (cart. coord. in units of alat)
               a(1) = (   0.500000   0.500000   0.500000 )  
               a(2) = (  -0.500000   0.500000   0.500000 )  
               a(3) = (  -0.500000  -0.500000   0.500000 )  

     reciprocal axes: (cart. coord. in units 2 pi/alat)
               b(1) = (  1.000000  0.000000  1.000000 )  
               b(2) = ( -1.000000  1.000000  0.000000 )  
               b(3) = (  0.000000 -1.000000  1.000000 )  


     PseudoPot. # 1 for Fe read from file:
     ./Fe.pbe-spn-kjpaw_psl.0.2.1.UPF
     MD5 check sum: a0a08122d52b112de96d1da1d7dd020f
     Pseudo is Projector augmented-wave + core cor, Zval = 16.0
     Generated using "atomic" code by A. Dal Corso  v.5.0.2 svn rev. 9415
     Shape of augmentation charge: PSQ
     Using radial grid of 1191 points,  6 beta functions with: 
                l(1) =   0
                l(2) =   0
                l(3) =   1
                l(4) =   1
                l(5) =   2
                l(6) =   2
     Q(r) pseudized with 0 coefficients 


     atomic species   valence    mass     pseudopotential
        Fe            16.00    55.85000     Fe( 1.00)

     Starting magnetic structure 
     atomic species   magnetization
        Fe           0.700

     48 Sym. Ops., with inversion, found



   Cartesian axes

     site n.     atom                  positions (alat units)
         1           Fe  tau(   1) = (   0.0000000   0.0000000   0.0000000  )

     number of k points=    70  Marzari-Vanderbilt smearing, width (Ry)=  0.0250
                       cart. coord. in units 2pi/alat
        k(    1) = (   0.0000000   0.0000000   0.0000000), wk =   0.0013717
        k(    2) = (   0.0000000  -0.1111111   0.1111111), wk =   0.0164609
        k(    3) = (   0.0000000  -0.2222222   0.2222222), wk =   0.0164609
        k(    4) = (   0.0000000  -0.3333333   0.3333333), wk =   0.0164609
        k(    5) = (   0.0000000  -0.4444444   0.4444444), wk =   0.0164609
        k(    6) = (  -0.1111111  -0.1111111   0.2222222), wk =   0.0329218
        k(    7) = (  -0.1111111  -0.2222222   0.3333333), wk =   0.0658436
        k(    8) = (  -0.1111111  -0.3333333   0.4444444), wk =   0.0658436
        k(    9) = (  -0.1111111   0.5555556  -0.4444444), wk =   0.0329218
        k(   10) = (  -0.2222222  -0.2222222   0.4444444), wk =   0.0329218
        k(   11) = (  -0.2222222   0.6666667  -0.4444444), wk =   0.0658436
        k(   12) = (  -0.3333333   0.6666667  -0.3333333), wk =   0.0109739
        k(   13) = (   0.0000000   0.0000000   0.2222222), wk =   0.0082305
        k(   14) = (   0.0000000  -0.1111111   0.3333333), wk =   0.0329218
        k(   15) = (   0.0000000  -0.2222222   0.4444444), wk =   0.0329218
        k(   16) = (   0.0000000  -0.3333333   0.5555556), wk =   0.0329218
        k(   17) = (  -0.1111111  -0.1111111   0.4444444), wk =   0.0329218
        k(   18) = (  -0.1111111  -0.2222222   0.5555556), wk =   0.0658436
        k(   19) = (  -0.1111111   0.6666667  -0.3333333), wk =   0.0329218
        k(   20) = (  -0.2222222   0.2222222   0.2222222), wk =   0.0109739
        k(   21) = (  -0.2222222   0.7777778  -0.3333333), wk =   0.0329218
        k(   22) = (  -0.3333333   0.3333333   0.2222222), wk =   0.0329218
        k(   23) = (   0.5555556  -0.5555556   0.2222222), wk =   0.0329218
        k(   24) = (   0.5555556  -0.6666667   0.3333333), wk =   0.0329218
        k(   25) = (   0.4444444  -0.5555556   0.3333333), wk =   0.0329218
        k(   26) = (   0.0000000   0.0000000   0.4444444), wk =   0.0082305
        k(   27) = (   0.0000000  -0.1111111   0.5555556), wk =   0.0329218
        k(   28) = (   0.0000000  -0.2222222   0.6666667), wk =   0.0329218
        k(   29) = (  -0.1111111  -0.1111111   0.6666667), wk =   0.0329218
        k(   30) = (  -0.1111111   0.7777778  -0.2222222), wk =   0.0329218
        k(   31) = (   0.5555556  -0.5555556   0.4444444), wk =   0.0109739
        k(   32) = (   0.0000000   0.0000000   0.6666667), wk =   0.0082305
        k(   33) = (   0.0000000  -0.1111111   0.7777778), wk =   0.0329218
        k(   34) = (  -0.1111111   0.8888889  -0.1111111), wk =   0.0109739
        k(   35) = (   0.0000000   0.0000000   0.8888889), wk =   0.0082305
        k(   36) = (   0.0000000   0.0000000   0.0000000), wk =   0.0013717
        k(   37) = (   0.0000000  -0.1111111   0.1111111), wk =   0.0164609
        k(   38) = (   0.0000000  -0.2222222   0.2222222), wk =   0.0164609
        k(   39) = (   0.0000000  -0.3333333   0.3333333), wk =   0.0164609
        k(   40) = (   0.0000000  -0.4444444   0.4444444), wk =   0.0164609
        k(   41) = (  -0.1111111  -0.1111111   0.2222222), wk =   0.0329218
        k(   42) = (  -0.1111111  -0.2222222   0.3333333), wk =   0.0658436
        k(   43) = (  -0.1111111  -0.3333333   0.4444444), wk =   0.0658436
        k(   44) = (  -0.1111111   0.5555556  -0.4444444), wk =   0.0329218
        k(   45) = (  -0.2222222  -0.2222222   0.4444444), wk =   0.0329218
        k(   46) = (  -0.2222222   0.6666667  -0.4444444), wk =   0.0658436
        k(   47) = (  -0.3333333   0.6666667  -0.3333333), wk =   0.0109739
        k(   48) = (   0.0000000   0.0000000   0.2222222), wk =   0.0082305
        k(   49) = (   0.0000000  -0.1111111   0.3333333), wk =   0.0329218
        k(   50) = (   0.0000000  -0.2222222   0.4444444), wk =   0.0329218
        k(   51) = (   0.0000000  -0.3333333   0.5555556), wk =   0.0329218
        k(   52) = (  -0.1111111  -0.1111111   0.4444444), wk =   0.0329218
        k(   53) = (  -0.1111111  -0.2222222   0.5555556), wk =   0.0658436
        k(   54) = (  -0.1111111   0.6666667  -0.3333333), wk =   0.0329218
        k(   55) = (  -0.2222222   0.2222222   0.2222222), wk =   0.0109739
        k(   56) = (  -0.2222222   0.7777778  -0.3333333), wk =   0.0329218
        k(   57) = (  -0.3333333   0.3333333   0.2222222), wk =   0.0329218
        k(   58) = (   0.5555556  -0.5555556   0.2222222), wk =   0.0329218
        k(   59) = (   0.5555556  -0.6666667   0.3333333), wk =   0.0329218
        k(   60) = (   0.4444444  -0.5555556   0.3333333), wk =   0.0329218
        k(   61) = (   0.0000000   0.0000000   0.4444444), wk =   0.0082305
        k(   62) = (   0.0000000  -0.1111111   0.5555556), wk =   0.0329218
        k(   63) = (   0.0000000  -0.2222222   0.6666667), wk =   0.0329218
        k(   64) = (  -0.1111111  -0.1111111   0.6666667), wk =   0.0329218
        k(   65) = (  -0.1111111   0.7777778  -0.2222222), wk =   0.0329218
        k(   66) = (   0.5555556  -0.5555556   0.4444444), wk =   0.0109739
        k(   67) = (   0.0000000   0.0000000   0.6666667), wk =   0.0082305
        k(   68) = (   0.0000000  -0.1111111   0.7777778), wk =   0.0329218
        k(   69) = (  -0.1111111   0.8888889  -0.1111111), wk =   0.0109739
        k(   70) = (   0.0000000   0.0000000   0.8888889), wk =   0.0082305

     Dense  grid:     4537 G-vectors     FFT dimensions: (  24,  24,  24)

     Smooth grid:     3319 G-vectors     FFT dimensions: (  24,  24,  24)

     Largest allocated arrays     est. size (Mb)     dimensions
        Kohn-Sham Wavefunctions         0.08 Mb     (     415,   12)
        NL pseudopotentials             0.11 Mb     (     415,   18)
        Each V/rho on FFT grid          0.42 Mb     (   13824,   2)
        Each G-vector array             0.03 Mb     (    4537)
        G-vector shells                 0.00 Mb     (      78)
     Largest temporary arrays     est. size (Mb)     dimensions
        Auxiliary wavefunctions         0.30 Mb     (     415,   48)
        Each subspace H/S matrix        0.04 Mb     (      48,   48)
        Each <psi_i|beta_j> matrix      0.00 Mb     (      18,   12)
        Arrays for rho mixing           1.69 Mb     (   13824,    8)

     Check: negative/imaginary core charge=   -0.000441    0.000000

     Initial potential from superposition of free atoms

     starting charge   15.99956, renormalised to   16.00000
     Starting wfc are   13 randomized atomic wfcs

     total cpu time spent up to now is        1.9 secs

     Self-consistent Calculation

     iteration #  1     ecut=    50.00 Ry     beta=0.70
     Davidson diagonalization with overlap
     ethr =  1.00E-02,  avg # of iterations =  3.5

     negative rho (up, down):  0.000E+00 2.411E-04

     Magnetic moment per site:
     atom:    1    charge:   14.2030    magn:    5.5526    constr:    0.0000

     total cpu time spent up to now is        4.0 secs

     total energy              =    -328.96600253 Ry
     Harris-Foulkes estimate   =    -327.98748156 Ry
     estimated scf accuracy    <       1.57174505 Ry

     total magnetization       =     3.70 Bohr mag/cell
     absolute magnetization    =     3.72 Bohr mag/cell

     iteration #  2     ecut=    50.00 Ry     beta=0.70
     Davidson diagonalization with overlap
     ethr =  9.82E-03,  avg # of iterations =  1.1

     negative rho (up, down):  0.000E+00 2.599E-04

     Magnetic moment per site:
     atom:    1    charge:   14.4029    magn:    3.1170    constr:    0.0000

     total cpu time spent up to now is        5.8 secs

     total energy              =    -329.17280371 Ry
     Harris-Foulkes estimate   =    -329.06920005 Ry
     estimated scf accuracy    <       0.30860830 Ry

     total magnetization       =     2.93 Bohr mag/cell
     absolute magnetization    =     3.04 Bohr mag/cell

     iteration #  3     ecut=    50.00 Ry     beta=0.70
     Davidson diagonalization with overlap
     ethr =  1.93E-03,  avg # of iterations =  2.2

     negative rho (up, down):  0.000E+00 2.367E-04

     Magnetic moment per site:
     atom:    1    charge:   14.2910    magn:    2.2796    constr:    0.0000

     total cpu time spent up to now is        7.5 secs

     total energy              =    -329.19294193 Ry
     Harris-Foulkes estimate   =    -329.31530123 Ry
     estimated scf accuracy    <       0.36053839 Ry

     total magnetization       =     2.19 Bohr mag/cell
     absolute magnetization    =     2.32 Bohr mag/cell

     iteration #  4     ecut=    50.00 Ry     beta=0.70
     Davidson diagonalization with overlap
     ethr =  1.93E-03,  avg # of iterations =  2.0

     negative rho (up, down):  0.000E+00 7.725E-05

     Magnetic moment per site:
     atom:    1    charge:   14.3114    magn:    1.9265    constr:    0.0000

     total cpu time spent up to now is        9.2 secs

     total energy              =    -329.25026611 Ry
     Harris-Foulkes estimate   =    -329.24922470 Ry
     estimated scf accuracy    <       0.00351484 Ry

     total magnetization       =     2.06 Bohr mag/cell
     absolute magnetization    =     2.20 Bohr mag/cell

     iteration #  5     ecut=    50.00 Ry     beta=0.70
     Davidson diagonalization with overlap
     ethr =  2.20E-05,  avg # of iterations =  3.3

     negative rho (up, down):  0.000E+00 9.297E-05

     Magnetic moment per site:
     atom:    1    charge:   14.2987    magn:    2.1177    constr:    0.0000

     total cpu time spent up to now is       11.3 secs

     total energy              =    -329.25358033 Ry
     Harris-Foulkes estimate   =    -329.25372238 Ry
     estimated scf accuracy    <       0.00081601 Ry

     total magnetization       =     1.99 Bohr mag/cell
     absolute magnetization    =     2.08 Bohr mag/cell

     iteration #  6     ecut=    50.00 Ry     beta=0.70
     Davidson diagonalization with overlap
     ethr =  5.10E-06,  avg # of iterations =  2.5

     negative rho (up, down):  0.000E+00 5.709E-05

     Magnetic moment per site:
     atom:    1    charge:   14.2983    magn:    2.0427    constr:    0.0000

     total cpu time spent up to now is       13.2 secs

     total energy              =    -329.25407239 Ry
     Harris-Foulkes estimate   =    -329.25403873 Ry
     estimated scf accuracy    <       0.00061036 Ry

     total magnetization       =     2.03 Bohr mag/cell
     absolute magnetization    =     2.12 Bohr mag/cell

     iteration #  7     ecut=    50.00 Ry     beta=0.70
     Davidson diagonalization with overlap
     ethr =  3.81E-06,  avg # of iterations =  1.5

     negative rho (up, down):  0.000E+00 6.409E-05

     Magnetic moment per site:
     atom:    1    charge:   14.3004    magn:    2.0425    constr:    0.0000

     total cpu time spent up to now is       14.8 secs

     total energy              =    -329.25421041 Ry
     Harris-Foulkes estimate   =    -329.25420403 Ry
     estimated scf accuracy    <       0.00002409 Ry

     total magnetization       =     2.02 Bohr mag/cell
     absolute magnetization    =     2.09 Bohr mag/cell

     iteration #  8     ecut=    50.00 Ry     beta=0.70
     Davidson diagonalization with overlap
     ethr =  1.51E-07,  avg # of iterations =  2.6

     negative rho (up, down):  0.000E+00 6.215E-05

     Magnetic moment per site:
     atom:    1    charge:   14.3007    magn:    2.0347    constr:    0.0000

     total cpu time spent up to now is       16.7 secs

     total energy              =    -329.25421876 Ry
     Harris-Foulkes estimate   =    -329.25421555 Ry
     estimated scf accuracy    <       0.00000766 Ry

     total magnetization       =     2.02 Bohr mag/cell
     absolute magnetization    =     2.09 Bohr mag/cell

     iteration #  9     ecut=    50.00 Ry     beta=0.70
     Davidson diagonalization with overlap
     ethr =  4.79E-08,  avg # of iterations =  1.5

     negative rho (up, down):  0.000E+00 6.140E-05

     Magnetic moment per site:
     atom:    1    charge:   14.3005    magn:    2.0321    constr:    0.0000

     total cpu time spent up to now is       18.3 secs

     total energy              =    -329.25422225 Ry
     Harris-Foulkes estimate   =    -329.25422141 Ry
     estimated scf accuracy    <       0.00000075 Ry

     total magnetization       =     2.01 Bohr mag/cell
     absolute magnetization    =     2.09 Bohr mag/cell

     iteration # 10     ecut=    50.00 Ry     beta=0.70
     Davidson diagonalization with overlap
     ethr =  4.68E-09,  avg # of iterations =  2.0

     negative rho (up, down):  0.000E+00 6.040E-05

     Magnetic moment per site:
     atom:    1    charge:   14.3003    magn:    2.0297    constr:    0.0000

     total cpu time spent up to now is       20.1 secs

     total energy              =    -329.25422257 Ry
     Harris-Foulkes estimate   =    -329.25422249 Ry
     estimated scf accuracy    <       0.00000013 Ry

     total magnetization       =     2.01 Bohr mag/cell
     absolute magnetization    =     2.09 Bohr mag/cell

     iteration # 11     ecut=    50.00 Ry     beta=0.70
     Davidson diagonalization with overlap
     ethr =  8.16E-10,  avg # of iterations =  2.0

     negative rho (up, down):  0.000E+00 6.065E-05

     Magnetic moment per site:
     atom:    1    charge:   14.3004    magn:    2.0302    constr:    0.0000

     total cpu time spent up to now is       21.8 secs

     total energy              =    -329.25422277 Ry
     Harris-Foulkes estimate   =    -329.25422270 Ry
     estimated scf accuracy    <       0.00000002 Ry

     total magnetization       =     2.01 Bohr mag/cell
     absolute magnetization    =     2.09 Bohr mag/cell

     iteration # 12     ecut=    50.00 Ry     beta=0.70
     Davidson diagonalization with overlap
     ethr =  1.49E-10,  avg # of iterations =  2.2

     negative rho (up, down):  0.000E+00 6.055E-05

     Magnetic moment per site:
     atom:    1    charge:   14.3004    magn:    2.0300    constr:    0.0000

     total cpu time spent up to now is       23.6 secs

     End of self-consistent calculation

 ------ SPIN UP ------------


          k = 0.0000 0.0000 0.0000 (   381 PWs)   bands (ev):

   -67.1452 -32.8269 -32.8269 -32.8269  11.8240  18.5861  18.5861  18.5861
    19.8951  19.8951  47.0741  47.0741

          k = 0.0000-0.1111 0.1111 (   398 PWs)   bands (ev):

   -67.1311 -32.9023 -32.8523 -32.8280  12.3779  18.4193  18.5536  18.9114
    19.7548  19.9099  44.4120  46.3165

          k = 0.0000-0.2222 0.2222 (   402 PWs)   bands (ev):

   -67.0933 -33.0864 -32.9121 -32.8283  13.8438  18.0124  18.3654  19.7088
    19.7881  19.9627  39.4836  44.0576

          k = 0.0000-0.3333 0.3333 (   410 PWs)   bands (ev):

   -67.0503 -33.2922 -32.9802 -32.8295  15.2121  17.5740  18.8843  19.9597
    20.0510  20.9023  34.3152  41.8102

          k = 0.0000-0.4444 0.4444 (   408 PWs)   bands (ev):

   -67.0218 -33.4246 -33.0238 -32.8292  15.4314  17.3003  19.9880  20.1262
    21.0742  21.7210  30.2507  40.5361

          k =-0.1111-0.1111 0.2222 (   399 PWs)   bands (ev):

   -67.1047 -33.0288 -32.8788 -32.8456  13.4065  18.2195  18.2709  19.5905
    19.5967  20.0047  41.7092  43.1241

          k =-0.1111-0.2222 0.3333 (   405 PWs)   bands (ev):

   -67.0643 -33.2076 -32.9514 -32.8532  14.9971  17.7740  18.0943  19.6801
    20.1409  20.7909  37.0613  40.5200

          k =-0.1111-0.3333 0.4444 (   405 PWs)   bands (ev):

   -67.0283 -33.3592 -33.0228 -32.8548  15.7230  17.4376  18.8641  19.9648
    20.4158  22.3283  32.2041  38.9540

          k =-0.1111 0.5556-0.4444 (   410 PWs)   bands (ev):

   -67.0143 -33.4182 -33.0519 -32.8560  15.7067  17.3163  19.3960  20.0065
    20.8598  23.5958  29.5609  38.3675

          k =-0.2222-0.2222 0.4444 (   401 PWs)   bands (ev):

   -67.0308 -33.3067 -33.0319 -32.8821  16.2012  17.3736  18.0305  19.7932
    20.3458  22.6432  34.7775  35.8526

          k =-0.2222 0.6667-0.4444 (   407 PWs)   bands (ev):

   -67.0093 -33.3467 -33.1187 -32.8928  16.4359  17.3375  18.2399  20.0308
    20.5488  25.1863  30.6992  34.3430

          k =-0.3333 0.6667-0.3333 (   406 PWs)   bands (ev):

   -67.0017 -33.2505 -33.2505 -32.9046  16.9154  17.5345  17.5345  20.3375
    20.3375  28.6563  28.6563  31.7264

          k = 0.0000 0.0000 0.2222 (   398 PWs)   bands (ev):

   -67.1167 -32.9226 -32.8763 -32.8763  12.9110  18.5977  18.5977  18.9111
    19.3473  20.1103  43.4129  45.9093

          k = 0.0000-0.1111 0.3333 (   402 PWs)   bands (ev):

   -67.0802 -33.0830 -32.9378 -32.8869  14.3028  18.3201  18.3354  19.2116
    19.7078  20.3322  39.7807  43.2053

          k = 0.0000-0.2222 0.4444 (   408 PWs)   bands (ev):

   -67.0385 -33.2786 -33.0070 -32.8836  15.5795  17.9255  18.1191  19.6888
    20.8376  20.9531  34.6603  41.2662

          k = 0.0000-0.3333 0.5556 (   409 PWs)   bands (ev):

   -67.0110 -33.4046 -33.0514 -32.8812  15.7451  17.6747  18.5666  19.7959
    21.6779  22.8486  30.3992  40.2298

          k =-0.1111-0.1111 0.4444 (   406 PWs)   bands (ev):

   -67.0423 -33.2109 -33.0102 -32.9211  15.6074  17.6849  18.4284  19.2860
    20.3914  21.1287  37.3734  38.4972

          k =-0.1111-0.2222 0.5556 (   411 PWs)   bands (ev):

   -67.0090 -33.3321 -33.0889 -32.9254  16.2547  17.4157  18.2094  19.7050
    20.9715  23.2759  32.7683  36.4518

          k =-0.1111 0.6667-0.3333 (   412 PWs)   bands (ev):

   -66.9957 -33.3798 -33.1211 -32.9250  16.1893  17.7954  17.8577  19.8127
    21.3663  25.3763  29.6966  35.8369

          k =-0.2222 0.2222 0.2222 (   405 PWs)   bands (ev):

   -67.0746 -33.1784 -32.8861 -32.8861  14.7682  17.7809  17.7809  19.8969
    19.8969  20.8315  39.4990  39.4990

          k =-0.2222 0.7778-0.3333 (   406 PWs)   bands (ev):

   -66.9893 -33.3186 -33.2048 -32.9364  16.9297  16.9524  17.8126  20.2425
    20.8771  26.6266  30.8562  32.4840

          k =-0.3333 0.3333 0.2222 (   404 PWs)   bands (ev):

   -67.0398 -33.3014 -32.9785 -32.8929  16.1360  17.4046  17.7990  19.9801
    20.0724  22.5226  34.8558  37.7987

          k = 0.5556-0.5556 0.2222 (   412 PWs)   bands (ev):

   -67.0174 -33.3617 -33.0589 -32.8981  16.2064  17.2081  18.9102  20.1013
    20.1472  24.6159  30.5587  36.8549

          k = 0.5556-0.6667 0.3333 (   407 PWs)   bands (ev):

   -67.0184 -33.3143 -33.0576 -32.9434  16.8573  17.2747  17.8416  20.0908
    20.1842  24.9658  32.9018  34.0014

          k = 0.4444-0.5556 0.3333 (   412 PWs)   bands (ev):

   -67.0101 -33.2807 -33.1356 -32.9556  16.8233  17.2937  18.1412  20.1681
    20.2140  27.4121  29.8824  33.1141

          k = 0.0000 0.0000 0.4444 (   402 PWs)   bands (ev):

   -67.0466 -33.1078 -33.0013 -33.0013  15.3737  17.9685  18.9212  18.9212
    19.7540  20.9419  40.1327  41.1101

          k = 0.0000-0.1111 0.5556 (   413 PWs)   bands (ev):

   -67.0088 -33.2461 -33.0738 -33.0199  16.1972  17.2001  18.8746  19.4161
    20.6948  22.3691  35.6568  38.6990

          k = 0.0000-0.2222 0.6667 (   413 PWs)   bands (ev):

   -66.9836 -33.3531 -33.1201 -33.0129  16.1949  17.0706  18.7145  19.6149
    21.5700  25.1688  30.9754  37.2346

          k =-0.1111-0.1111 0.6667 (   414 PWs)   bands (ev):

   -66.9789 -33.3003 -33.1646 -33.0456  16.4290  16.5641  18.9440  20.0350
    21.1336  25.0111  33.6526  34.3648

          k =-0.1111 0.7778-0.2222 (   412 PWs)   bands (ev):

   -66.9670 -33.3206 -33.2122 -33.0440  16.2638  16.5418  18.8222  20.3897
    21.3696  27.9904  30.1715  33.4077

          k = 0.5556-0.5556 0.4444 (   414 PWs)   bands (ev):

   -67.0104 -33.2282 -33.0747 -33.0747  17.3024  17.3024  17.7001  20.1756
    20.1756  28.0645  31.9164  31.9164

          k = 0.0000 0.0000 0.6667 (   414 PWs)   bands (ev):

   -66.9746 -33.2320 -33.1490 -33.1490  16.1906  16.4498  19.9321  19.9321
    20.7478  24.3899  35.9974  35.9974

          k = 0.0000-0.1111 0.7778 (   414 PWs)   bands (ev):

   -66.9522 -33.2953 -33.1980 -33.1586  15.9309  16.0308  20.1305  20.4036
    21.4502  27.5530  32.0608  34.3123

          k =-0.1111 0.8889-0.1111 (   415 PWs)   bands (ev):

   -66.9417 -33.2690 -33.2690 -33.1694  15.7621  15.7621  20.2589  21.2882
    21.2882  30.7478  30.7478  31.8740

          k = 0.0000 0.0000 0.8889 (   406 PWs)   bands (ev):

   -66.9312 -33.2600 -33.2481 -33.2481  15.4993  15.5109  21.2498  21.2498
    21.4167  30.2401  32.4543  32.4543

 ------ SPIN DOWN ----------


          k = 0.0000 0.0000 0.0000 (   381 PWs)   bands (ev):

   -64.7314 -30.4455 -30.4455 -30.4455  12.0432  20.1575  20.1575  20.1575
    22.7502  22.7502  46.9077  46.9077

          k = 0.0000-0.1111 0.1111 (   398 PWs)   bands (ev):

   -64.7159 -30.5278 -30.4727 -30.4466  12.6017  19.9665  20.1155  20.5033
    22.5500  22.7659  44.6123  46.3081

          k = 0.0000-0.2222 0.2222 (   402 PWs)   bands (ev):

   -64.6751 -30.7293 -30.5375 -30.4470  14.1188  19.5039  19.9143  21.4403
    22.3123  22.8294  40.0672  44.2139

          k = 0.0000-0.3333 0.3333 (   410 PWs)   bands (ev):

   -64.6285 -30.9542 -30.6110 -30.4483  15.8630  19.0100  20.0333  22.3820
    22.6435  22.9458  35.1743  41.9536

          k = 0.0000-0.4444 0.4444 (   408 PWs)   bands (ev):

   -64.5977 -31.0985 -30.6582 -30.4483  16.5541  18.7040  21.3489  22.5192
    23.0499  23.5400  31.4229  40.6322

          k =-0.1111-0.1111 0.2222 (   399 PWs)   bands (ev):

   -64.6874 -30.6662 -30.5016 -30.4657  13.6510  19.7325  19.8343  21.2124
    22.2750  22.8594  42.1365  43.4627

          k =-0.1111-0.2222 0.3333 (   405 PWs)   bands (ev):

   -64.6436 -30.8617 -30.5804 -30.4741  15.3958  19.2549  19.5605  22.1769
    22.4095  23.0290  37.7651  40.9467

          k =-0.1111-0.3333 0.4444 (   405 PWs)   bands (ev):

   -64.6048 -31.0271 -30.6577 -30.4761  16.6919  18.8500  20.0277  22.3731
    23.0559  23.9277  33.1718  39.3692

          k =-0.1111 0.5556-0.4444 (   410 PWs)   bands (ev):

   -64.5896 -31.0913 -30.6891 -30.4774  16.9053  18.7043  20.7373  22.4827
    23.1822  24.8542  30.7876  38.7685

          k =-0.2222-0.2222 0.4444 (   401 PWs)   bands (ev):

   -64.6075 -30.9696 -30.6686 -30.5056  16.9513  18.9160  19.2752  22.2144
    23.0069  24.2647  35.5935  36.4773

          k =-0.2222 0.6667-0.4444 (   407 PWs)   bands (ev):

   -64.5842 -31.0130 -30.7632 -30.5171  17.6345  18.7487  19.5334  22.4506
    23.0189  26.4513  31.7155  35.0202

          k =-0.3333 0.6667-0.3333 (   406 PWs)   bands (ev):

   -64.5760 -30.9077 -30.9077 -30.5298  18.1657  18.9378  18.9378  22.7455
    22.7455  29.6974  29.6974  32.5505

          k = 0.0000 0.0000 0.2222 (   398 PWs)   bands (ev):

   -64.7003 -30.5507 -30.4989 -30.4989  13.1443  20.1412  20.1412  20.5057
    22.0465  23.0024  43.6946  46.1025

          k = 0.0000-0.1111 0.3333 (   402 PWs)   bands (ev):

   -64.6608 -30.7261 -30.5654 -30.5105  14.6075  19.8237  20.0129  21.3525
    21.5724  23.1977  40.3910  43.5480

          k = 0.0000-0.2222 0.4444 (   408 PWs)   bands (ev):

   -64.6157 -30.9391 -30.6402 -30.5073  16.2852  19.3797  19.7573  21.8183
    22.5718  23.4901  35.5122  41.6206

          k = 0.0000-0.3333 0.5556 (   409 PWs)   bands (ev):

   -64.5861 -31.0763 -30.6883 -30.5048  16.9577  19.0992  20.1927  22.0852
    23.4930  24.4580  31.5359  40.5649

          k =-0.1111-0.1111 0.4444 (   406 PWs)   bands (ev):

   -64.6199 -30.8652 -30.6443 -30.5478  16.1509  19.5126  19.8703  21.3474
    22.2507  23.5919  38.1635  39.0593

          k =-0.1111-0.2222 0.5556 (   411 PWs)   bands (ev):

   -64.5838 -30.9970 -30.7298 -30.5524  17.3699  19.0854  19.6872  21.7597
    22.9905  24.9611  33.7022  37.1119

          k =-0.1111 0.6667-0.3333 (   412 PWs)   bands (ev):

   -64.5696 -31.0488 -30.7648 -30.5520  17.5881  19.3085  19.4496  21.9385
    23.2946  26.6355  30.8558  36.4922

          k =-0.2222 0.2222 0.2222 (   405 PWs)   bands (ev):

   -64.6547 -30.8300 -30.5095 -30.5095  15.0620  19.2707  19.2707  22.4635
    22.6494  22.6494  40.0015  40.0015

          k =-0.2222 0.7778-0.3333 (   406 PWs)   bands (ev):

   -64.5628 -30.9819 -30.8569 -30.5640  18.3492  18.6310  19.3102  22.2305
    22.8827  27.8776  31.8958  33.2391

          k =-0.3333 0.3333 0.2222 (   404 PWs)   bands (ev):

   -64.6171 -30.9638 -30.6105 -30.5174  16.7608  18.8003  19.0686  22.6365
    22.9274  24.0561  35.6031  38.2905

          k = 0.5556-0.5556 0.2222 (   412 PWs)   bands (ev):

   -64.5929 -31.0296 -30.6976 -30.5233  17.3463  18.5461  19.8480  22.7239
    23.0717  25.8095  31.5883  37.3165

          k = 0.5556-0.6667 0.3333 (   407 PWs)   bands (ev):

   -64.5939 -30.9776 -30.6971 -30.5726  17.9186  18.6093  18.8768  22.8111
    23.0438  26.2339  33.6867  34.6807

          k = 0.4444-0.5556 0.3333 (   412 PWs)   bands (ev):

   -64.5849 -30.9410 -30.7822 -30.5860  18.0214  18.5549  19.2367  22.9033
    23.0658  28.3749  30.8659  33.8142

          k = 0.0000 0.0000 0.4444 (   402 PWs)   bands (ev):

   -64.6246 -30.7538 -30.6345 -30.6345  15.8526  20.3156  20.4347  20.4347
    21.4121  23.6094  40.8853  41.6694

          k = 0.0000-0.1111 0.5556 (   413 PWs)   bands (ev):

   -64.5836 -30.9034 -30.7129 -30.6551  17.1723  19.2333  20.3807  21.1299
    22.4167  24.4118  36.4609  39.2759

          k = 0.0000-0.2222 0.6667 (   413 PWs)   bands (ev):

   -64.5565 -31.0195 -30.7632 -30.6475  17.7316  18.8361  20.2045  21.4708
    23.3753  26.5110  31.9817  37.7764

          k =-0.1111-0.1111 0.6667 (   414 PWs)   bands (ev):

   -64.5515 -30.9616 -30.8122 -30.6826  17.8897  18.4952  20.4740  21.7236
    22.9409  26.4077  34.5453  35.0098

          k =-0.1111 0.7778-0.2222 (   412 PWs)   bands (ev):

   -64.5386 -30.9834 -30.8643 -30.6808  18.0431  18.3156  20.2895  22.1392
    23.1828  29.0644  31.1545  34.1029

          k = 0.5556-0.5556 0.4444 (   414 PWs)   bands (ev):

   -64.5853 -30.8840 -30.7159 -30.7159  18.5078  18.5078  18.7365  23.0901
    23.0901  29.0203  32.6625  32.6625

          k = 0.0000 0.0000 0.6667 (   414 PWs)   bands (ev):

   -64.5469 -30.8876 -30.7948 -30.7948  17.6434  18.4776  21.5010  21.5010
    22.4864  25.8363  36.5435  36.5435

          k = 0.0000-0.1111 0.7778 (   414 PWs)   bands (ev):

   -64.5228 -30.9553 -30.8480 -30.8057  17.7143  17.8834  21.7392  22.0406
    23.2452  28.5405  32.7845  34.7914

          k =-0.1111 0.8889-0.1111 (   415 PWs)   bands (ev):

   -64.5114 -30.9259 -30.9259 -30.8171  17.6004  17.6004  21.8606  23.0531
    23.0531  31.4782  31.4782  32.4142

          k = 0.0000 0.0000 0.8889 (   406 PWs)   bands (ev):

   -64.5003 -30.9162 -30.9027 -30.9027  17.3303  17.3595  22.9994  22.9994
    23.2130  30.8217  32.8172  32.8172

     the Fermi energy is    21.1170 ev

!    total energy              =    -329.25422279 Ry
     Harris-Foulkes estimate   =    -329.25422278 Ry
     estimated scf accuracy    <          6.3E-09 Ry

     total all-electron energy =     -2545.550758 Ry

     The total energy is the sum of the following terms:

     one-electron contribution =     -98.79726858 Ry
     hartree contribution      =      61.51055710 Ry
     xc contribution           =     -34.91135009 Ry
     ewald contribution        =    -180.90170158 Ry
     one-center paw contrib.   =     -76.15470212 Ry
     smearing contrib. (-TS)   =       0.00024249 Ry

     total magnetization       =     2.01 Bohr mag/cell
     absolute magnetization    =     2.09 Bohr mag/cell

     convergence has been achieved in  12 iterations

     Forces acting on atoms (Ry/au):


     negative rho (up, down):  0.000E+00 6.055E-05
     atom    1 type  1   force =     0.00000000    0.00000000    0.00000000

     Total force =     0.000000     Total SCF correction =     0.000000


     entering subroutine stress ...


     negative rho (up, down):  0.000E+00 6.055E-05
          total   stress  (Ry/bohr**3)                   (kbar)     P=  208.72
   0.00141886  -0.00000000   0.00000000        208.72     -0.00      0.00
  -0.00000000   0.00141886  -0.00000000         -0.00    208.72     -0.00
   0.00000000  -0.00000000   0.00141886          0.00     -0.00    208.72


     Writing output data file Fe_bcc.save

     init_run     :      1.50s CPU      1.55s WALL (       1 calls)
     electrons    :     21.35s CPU     21.69s WALL (       1 calls)
     forces       :      0.11s CPU      0.12s WALL (       1 calls)
     stress       :      0.40s CPU      0.41s WALL (       1 calls)

     Called by init_run:
     wfcinit      :      0.49s CPU      0.49s WALL (       1 calls)
     potinit      :      0.50s CPU      0.53s WALL (       1 calls)

     Called by electrons:
     c_bands      :     12.89s CPU     13.08s WALL (      12 calls)
     sum_band     :      2.47s CPU      2.50s WALL (      12 calls)
     v_of_rho     :      0.28s CPU      0.29s WALL (      13 calls)
     newd         :      0.17s CPU      0.17s WALL (      13 calls)
     mix_rho      :      0.03s CPU      0.03s WALL (      12 calls)

     Called by c_bands:
     init_us_2    :      0.27s CPU      0.28s WALL (    1890 calls)
     cegterg      :     12.37s CPU     12.54s WALL (     840 calls)

     Called by *egterg:
     h_psi        :     10.73s CPU     10.88s WALL (    2766 calls)
     s_psi        :      0.25s CPU      0.23s WALL (    2766 calls)
     g_psi        :      0.06s CPU      0.06s WALL (    1856 calls)
     cdiaghg      :      0.76s CPU      0.77s WALL (    2696 calls)

     Called by h_psi:
     add_vuspsi   :      0.26s CPU      0.25s WALL (    2766 calls)

     General routines
     calbec       :      0.29s CPU      0.30s WALL (    3746 calls)
     fft          :      0.15s CPU      0.16s WALL (     437 calls)
     ffts         :      0.02s CPU      0.02s WALL (      50 calls)
     fftw         :     10.95s CPU     11.08s WALL (   59688 calls)
     interpolate  :      0.04s CPU      0.04s WALL (      50 calls)
     davcio       :      0.00s CPU      0.00s WALL (      70 calls)


     PAW routines
     PAW_pot      :      5.99s CPU      6.12s WALL (      13 calls)
     PAW_symme    :      0.02s CPU      0.02s WALL (      25 calls)

     PWSCF        :    23.82s CPU        24.39s WALL


   This run was terminated on:  14:39: 4  12May2015            

=------------------------------------------------------------------------------=
   JOB DONE.
=------------------------------------------------------------------------------=
