
     Program PWSCF v.5.1.2 starts on 12May2015 at 14:40:25 

     This program is part of the open-source Quantum ESPRESSO suite
     for quantum simulation of materials; please cite
         "P. Giannozzi et al., J. Phys.:Condens. Matter 21 395502 (2009);
          URL http://www.quantum-espresso.org", 
     in publications or presentations arising from this work. More details at
     http://www.quantum-espresso.org/quote

     Serial version
     Reading input from Fe_bcc_5.31_9.pw.in

     Current dimensions of program PWSCF are:
     Max number of different atomic species (ntypx) = 10
     Max number of k-points (npk) =  40000
     Max angular momentum in pseudopotentials (lmaxx) =  3
               file Fe.pbe-spn-kjpaw_psl.0.2.1.UPF: wavefunction(s)  3D renormalized

     G-vector sticks info
     --------------------
     sticks:   dense  smooth     PW     G-vecs:    dense   smooth      PW
     Sum         399     315     99                 5017     3559     675

     Generating pointlists ...
     new r_m :   0.3572 (alat units)  1.8969 (a.u.) for type    1


     bravais-lattice index     =            3
     lattice parameter (alat)  =       5.3100  a.u.
     unit-cell volume          =      74.8606 (a.u.)^3
     number of atoms/cell      =            1
     number of atomic types    =            1
     number of electrons       =        16.00
     number of Kohn-Sham states=           12
     kinetic-energy cutoff     =      50.0000  Ry
     charge density cutoff     =     250.0000  Ry
     convergence threshold     =      1.0E-08
     mixing beta               =       0.7000
     number of iterations used =            8  plain     mixing
     Exchange-correlation      =  SLA  PW   PBX  PBC ( 1  4  3  4 0 0)

     celldm(1)=   5.310000  celldm(2)=   0.000000  celldm(3)=   0.000000
     celldm(4)=   0.000000  celldm(5)=   0.000000  celldm(6)=   0.000000

     crystal axes: (cart. coord. in units of alat)
               a(1) = (   0.500000   0.500000   0.500000 )  
               a(2) = (  -0.500000   0.500000   0.500000 )  
               a(3) = (  -0.500000  -0.500000   0.500000 )  

     reciprocal axes: (cart. coord. in units 2 pi/alat)
               b(1) = (  1.000000  0.000000  1.000000 )  
               b(2) = ( -1.000000  1.000000  0.000000 )  
               b(3) = (  0.000000 -1.000000  1.000000 )  


     PseudoPot. # 1 for Fe read from file:
     ./Fe.pbe-spn-kjpaw_psl.0.2.1.UPF
     MD5 check sum: a0a08122d52b112de96d1da1d7dd020f
     Pseudo is Projector augmented-wave + core cor, Zval = 16.0
     Generated using "atomic" code by A. Dal Corso  v.5.0.2 svn rev. 9415
     Shape of augmentation charge: PSQ
     Using radial grid of 1191 points,  6 beta functions with: 
                l(1) =   0
                l(2) =   0
                l(3) =   1
                l(4) =   1
                l(5) =   2
                l(6) =   2
     Q(r) pseudized with 0 coefficients 


     atomic species   valence    mass     pseudopotential
        Fe            16.00    55.85000     Fe( 1.00)

     Starting magnetic structure 
     atomic species   magnetization
        Fe           0.700

     48 Sym. Ops., with inversion, found



   Cartesian axes

     site n.     atom                  positions (alat units)
         1           Fe  tau(   1) = (   0.0000000   0.0000000   0.0000000  )

     number of k points=    70  Marzari-Vanderbilt smearing, width (Ry)=  0.0250
                       cart. coord. in units 2pi/alat
        k(    1) = (   0.0000000   0.0000000   0.0000000), wk =   0.0013717
        k(    2) = (   0.0000000  -0.1111111   0.1111111), wk =   0.0164609
        k(    3) = (   0.0000000  -0.2222222   0.2222222), wk =   0.0164609
        k(    4) = (   0.0000000  -0.3333333   0.3333333), wk =   0.0164609
        k(    5) = (   0.0000000  -0.4444444   0.4444444), wk =   0.0164609
        k(    6) = (  -0.1111111  -0.1111111   0.2222222), wk =   0.0329218
        k(    7) = (  -0.1111111  -0.2222222   0.3333333), wk =   0.0658436
        k(    8) = (  -0.1111111  -0.3333333   0.4444444), wk =   0.0658436
        k(    9) = (  -0.1111111   0.5555556  -0.4444444), wk =   0.0329218
        k(   10) = (  -0.2222222  -0.2222222   0.4444444), wk =   0.0329218
        k(   11) = (  -0.2222222   0.6666667  -0.4444444), wk =   0.0658436
        k(   12) = (  -0.3333333   0.6666667  -0.3333333), wk =   0.0109739
        k(   13) = (   0.0000000   0.0000000   0.2222222), wk =   0.0082305
        k(   14) = (   0.0000000  -0.1111111   0.3333333), wk =   0.0329218
        k(   15) = (   0.0000000  -0.2222222   0.4444444), wk =   0.0329218
        k(   16) = (   0.0000000  -0.3333333   0.5555556), wk =   0.0329218
        k(   17) = (  -0.1111111  -0.1111111   0.4444444), wk =   0.0329218
        k(   18) = (  -0.1111111  -0.2222222   0.5555556), wk =   0.0658436
        k(   19) = (  -0.1111111   0.6666667  -0.3333333), wk =   0.0329218
        k(   20) = (  -0.2222222   0.2222222   0.2222222), wk =   0.0109739
        k(   21) = (  -0.2222222   0.7777778  -0.3333333), wk =   0.0329218
        k(   22) = (  -0.3333333   0.3333333   0.2222222), wk =   0.0329218
        k(   23) = (   0.5555556  -0.5555556   0.2222222), wk =   0.0329218
        k(   24) = (   0.5555556  -0.6666667   0.3333333), wk =   0.0329218
        k(   25) = (   0.4444444  -0.5555556   0.3333333), wk =   0.0329218
        k(   26) = (   0.0000000   0.0000000   0.4444444), wk =   0.0082305
        k(   27) = (   0.0000000  -0.1111111   0.5555556), wk =   0.0329218
        k(   28) = (   0.0000000  -0.2222222   0.6666667), wk =   0.0329218
        k(   29) = (  -0.1111111  -0.1111111   0.6666667), wk =   0.0329218
        k(   30) = (  -0.1111111   0.7777778  -0.2222222), wk =   0.0329218
        k(   31) = (   0.5555556  -0.5555556   0.4444444), wk =   0.0109739
        k(   32) = (   0.0000000   0.0000000   0.6666667), wk =   0.0082305
        k(   33) = (   0.0000000  -0.1111111   0.7777778), wk =   0.0329218
        k(   34) = (  -0.1111111   0.8888889  -0.1111111), wk =   0.0109739
        k(   35) = (   0.0000000   0.0000000   0.8888889), wk =   0.0082305
        k(   36) = (   0.0000000   0.0000000   0.0000000), wk =   0.0013717
        k(   37) = (   0.0000000  -0.1111111   0.1111111), wk =   0.0164609
        k(   38) = (   0.0000000  -0.2222222   0.2222222), wk =   0.0164609
        k(   39) = (   0.0000000  -0.3333333   0.3333333), wk =   0.0164609
        k(   40) = (   0.0000000  -0.4444444   0.4444444), wk =   0.0164609
        k(   41) = (  -0.1111111  -0.1111111   0.2222222), wk =   0.0329218
        k(   42) = (  -0.1111111  -0.2222222   0.3333333), wk =   0.0658436
        k(   43) = (  -0.1111111  -0.3333333   0.4444444), wk =   0.0658436
        k(   44) = (  -0.1111111   0.5555556  -0.4444444), wk =   0.0329218
        k(   45) = (  -0.2222222  -0.2222222   0.4444444), wk =   0.0329218
        k(   46) = (  -0.2222222   0.6666667  -0.4444444), wk =   0.0658436
        k(   47) = (  -0.3333333   0.6666667  -0.3333333), wk =   0.0109739
        k(   48) = (   0.0000000   0.0000000   0.2222222), wk =   0.0082305
        k(   49) = (   0.0000000  -0.1111111   0.3333333), wk =   0.0329218
        k(   50) = (   0.0000000  -0.2222222   0.4444444), wk =   0.0329218
        k(   51) = (   0.0000000  -0.3333333   0.5555556), wk =   0.0329218
        k(   52) = (  -0.1111111  -0.1111111   0.4444444), wk =   0.0329218
        k(   53) = (  -0.1111111  -0.2222222   0.5555556), wk =   0.0658436
        k(   54) = (  -0.1111111   0.6666667  -0.3333333), wk =   0.0329218
        k(   55) = (  -0.2222222   0.2222222   0.2222222), wk =   0.0109739
        k(   56) = (  -0.2222222   0.7777778  -0.3333333), wk =   0.0329218
        k(   57) = (  -0.3333333   0.3333333   0.2222222), wk =   0.0329218
        k(   58) = (   0.5555556  -0.5555556   0.2222222), wk =   0.0329218
        k(   59) = (   0.5555556  -0.6666667   0.3333333), wk =   0.0329218
        k(   60) = (   0.4444444  -0.5555556   0.3333333), wk =   0.0329218
        k(   61) = (   0.0000000   0.0000000   0.4444444), wk =   0.0082305
        k(   62) = (   0.0000000  -0.1111111   0.5555556), wk =   0.0329218
        k(   63) = (   0.0000000  -0.2222222   0.6666667), wk =   0.0329218
        k(   64) = (  -0.1111111  -0.1111111   0.6666667), wk =   0.0329218
        k(   65) = (  -0.1111111   0.7777778  -0.2222222), wk =   0.0329218
        k(   66) = (   0.5555556  -0.5555556   0.4444444), wk =   0.0109739
        k(   67) = (   0.0000000   0.0000000   0.6666667), wk =   0.0082305
        k(   68) = (   0.0000000  -0.1111111   0.7777778), wk =   0.0329218
        k(   69) = (  -0.1111111   0.8888889  -0.1111111), wk =   0.0109739
        k(   70) = (   0.0000000   0.0000000   0.8888889), wk =   0.0082305

     Dense  grid:     5017 G-vectors     FFT dimensions: (  24,  24,  24)

     Smooth grid:     3559 G-vectors     FFT dimensions: (  24,  24,  24)

     Largest allocated arrays     est. size (Mb)     dimensions
        Kohn-Sham Wavefunctions         0.08 Mb     (     462,   12)
        NL pseudopotentials             0.13 Mb     (     462,   18)
        Each V/rho on FFT grid          0.42 Mb     (   13824,   2)
        Each G-vector array             0.04 Mb     (    5017)
        G-vector shells                 0.00 Mb     (      84)
     Largest temporary arrays     est. size (Mb)     dimensions
        Auxiliary wavefunctions         0.34 Mb     (     462,   48)
        Each subspace H/S matrix        0.04 Mb     (      48,   48)
        Each <psi_i|beta_j> matrix      0.00 Mb     (      18,   12)
        Arrays for rho mixing           1.69 Mb     (   13824,    8)

     Check: negative/imaginary core charge=   -0.000428    0.000000

     Initial potential from superposition of free atoms

     starting charge   15.99956, renormalised to   16.00000
     Starting wfc are   13 randomized atomic wfcs

     total cpu time spent up to now is        2.0 secs

     Self-consistent Calculation

     iteration #  1     ecut=    50.00 Ry     beta=0.70
     Davidson diagonalization with overlap
     ethr =  1.00E-02,  avg # of iterations =  3.4

     negative rho (up, down):  0.000E+00 2.992E-04

     Magnetic moment per site:
     atom:    1    charge:   14.2579    magn:    5.6313    constr:    0.0000

     total cpu time spent up to now is        4.1 secs

     total energy              =    -328.98784879 Ry
     Harris-Foulkes estimate   =    -328.03702562 Ry
     estimated scf accuracy    <       1.53760001 Ry

     total magnetization       =     3.76 Bohr mag/cell
     absolute magnetization    =     3.80 Bohr mag/cell

     iteration #  2     ecut=    50.00 Ry     beta=0.70
     Davidson diagonalization with overlap
     ethr =  9.61E-03,  avg # of iterations =  1.2

     negative rho (up, down):  0.000E+00 3.211E-04

     Magnetic moment per site:
     atom:    1    charge:   14.4762    magn:    3.3356    constr:    0.0000

     total cpu time spent up to now is        5.9 secs

     total energy              =    -329.17207789 Ry
     Harris-Foulkes estimate   =    -329.09345888 Ry
     estimated scf accuracy    <       0.32939028 Ry

     total magnetization       =     2.99 Bohr mag/cell
     absolute magnetization    =     3.13 Bohr mag/cell

     iteration #  3     ecut=    50.00 Ry     beta=0.70
     Davidson diagonalization with overlap
     ethr =  2.06E-03,  avg # of iterations =  2.0

     negative rho (up, down):  0.000E+00 3.161E-04

     Magnetic moment per site:
     atom:    1    charge:   14.3604    magn:    2.4024    constr:    0.0000

     total cpu time spent up to now is        7.8 secs

     total energy              =    -329.18876441 Ry
     Harris-Foulkes estimate   =    -329.33775676 Ry
     estimated scf accuracy    <       0.43218570 Ry

     total magnetization       =     2.38 Bohr mag/cell
     absolute magnetization    =     2.52 Bohr mag/cell

     iteration #  4     ecut=    50.00 Ry     beta=0.70
     Davidson diagonalization with overlap
     ethr =  2.06E-03,  avg # of iterations =  2.0

     negative rho (up, down):  0.000E+00 1.553E-04

     Magnetic moment per site:
     atom:    1    charge:   14.3887    magn:    2.1307    constr:    0.0000

     total cpu time spent up to now is        9.7 secs

     total energy              =    -329.25828742 Ry
     Harris-Foulkes estimate   =    -329.25726888 Ry
     estimated scf accuracy    <       0.00256463 Ry

     total magnetization       =     2.21 Bohr mag/cell
     absolute magnetization    =     2.37 Bohr mag/cell

     iteration #  5     ecut=    50.00 Ry     beta=0.70
     Davidson diagonalization with overlap
     ethr =  1.60E-05,  avg # of iterations =  3.3

     negative rho (up, down):  0.000E+00 1.461E-04

     Magnetic moment per site:
     atom:    1    charge:   14.3747    magn:    2.1357    constr:    0.0000

     total cpu time spent up to now is       11.9 secs

     total energy              =    -329.26224775 Ry
     Harris-Foulkes estimate   =    -329.26205249 Ry
     estimated scf accuracy    <       0.00049103 Ry

     total magnetization       =     2.07 Bohr mag/cell
     absolute magnetization    =     2.20 Bohr mag/cell

     iteration #  6     ecut=    50.00 Ry     beta=0.70
     Davidson diagonalization with overlap
     ethr =  3.07E-06,  avg # of iterations =  2.4

     negative rho (up, down):  0.000E+00 9.994E-05

     Magnetic moment per site:
     atom:    1    charge:   14.3735    magn:    2.0596    constr:    0.0000

     total cpu time spent up to now is       13.8 secs

     total energy              =    -329.26236529 Ry
     Harris-Foulkes estimate   =    -329.26247565 Ry
     estimated scf accuracy    <       0.00046844 Ry

     total magnetization       =     2.06 Bohr mag/cell
     absolute magnetization    =     2.18 Bohr mag/cell

     iteration #  7     ecut=    50.00 Ry     beta=0.70
     Davidson diagonalization with overlap
     ethr =  2.93E-06,  avg # of iterations =  1.5

     negative rho (up, down):  0.000E+00 1.259E-04

     Magnetic moment per site:
     atom:    1    charge:   14.3770    magn:    2.1102    constr:    0.0000

     total cpu time spent up to now is       15.5 secs

     total energy              =    -329.26259105 Ry
     Harris-Foulkes estimate   =    -329.26255738 Ry
     estimated scf accuracy    <       0.00004482 Ry

     total magnetization       =     2.04 Bohr mag/cell
     absolute magnetization    =     2.14 Bohr mag/cell

     iteration #  8     ecut=    50.00 Ry     beta=0.70
     Davidson diagonalization with overlap
     ethr =  2.80E-07,  avg # of iterations =  2.7

     negative rho (up, down):  0.000E+00 1.224E-04

     Magnetic moment per site:
     atom:    1    charge:   14.3774    magn:    2.0971    constr:    0.0000

     total cpu time spent up to now is       17.4 secs

     total energy              =    -329.26262572 Ry
     Harris-Foulkes estimate   =    -329.26261370 Ry
     estimated scf accuracy    <       0.00002097 Ry

     total magnetization       =     2.05 Bohr mag/cell
     absolute magnetization    =     2.16 Bohr mag/cell

     iteration #  9     ecut=    50.00 Ry     beta=0.70
     Davidson diagonalization with overlap
     ethr =  1.31E-07,  avg # of iterations =  1.4

     negative rho (up, down):  0.000E+00 1.189E-04

     Magnetic moment per site:
     atom:    1    charge:   14.3765    magn:    2.0873    constr:    0.0000

     total cpu time spent up to now is       19.1 secs

     total energy              =    -329.26263217 Ry
     Harris-Foulkes estimate   =    -329.26263035 Ry
     estimated scf accuracy    <       0.00000500 Ry

     total magnetization       =     2.05 Bohr mag/cell
     absolute magnetization    =     2.15 Bohr mag/cell

     iteration # 10     ecut=    50.00 Ry     beta=0.70
     Davidson diagonalization with overlap
     ethr =  3.13E-08,  avg # of iterations =  1.4

     negative rho (up, down):  0.000E+00 1.186E-04

     Magnetic moment per site:
     atom:    1    charge:   14.3765    magn:    2.0865    constr:    0.0000

     total cpu time spent up to now is       20.8 secs

     total energy              =    -329.26263342 Ry
     Harris-Foulkes estimate   =    -329.26263314 Ry
     estimated scf accuracy    <       0.00000022 Ry

     total magnetization       =     2.05 Bohr mag/cell
     absolute magnetization    =     2.15 Bohr mag/cell

     iteration # 11     ecut=    50.00 Ry     beta=0.70
     Davidson diagonalization with overlap
     ethr =  1.39E-09,  avg # of iterations =  2.4

     negative rho (up, down):  0.000E+00 1.184E-04

     Magnetic moment per site:
     atom:    1    charge:   14.3765    magn:    2.0862    constr:    0.0000

     total cpu time spent up to now is       22.6 secs

     total energy              =    -329.26263356 Ry
     Harris-Foulkes estimate   =    -329.26263350 Ry
     estimated scf accuracy    <       0.00000008 Ry

     total magnetization       =     2.05 Bohr mag/cell
     absolute magnetization    =     2.15 Bohr mag/cell

     iteration # 12     ecut=    50.00 Ry     beta=0.70
     Davidson diagonalization with overlap
     ethr =  5.27E-10,  avg # of iterations =  1.0

     negative rho (up, down):  0.000E+00 1.176E-04

     Magnetic moment per site:
     atom:    1    charge:   14.3764    magn:    2.0850    constr:    0.0000

     total cpu time spent up to now is       24.1 secs

     total energy              =    -329.26263355 Ry
     Harris-Foulkes estimate   =    -329.26263357 Ry
     estimated scf accuracy    <       0.00000005 Ry

     total magnetization       =     2.05 Bohr mag/cell
     absolute magnetization    =     2.15 Bohr mag/cell

     iteration # 13     ecut=    50.00 Ry     beta=0.70
     Davidson diagonalization with overlap
     ethr =  3.22E-10,  avg # of iterations =  2.3

     negative rho (up, down):  0.000E+00 1.179E-04

     Magnetic moment per site:
     atom:    1    charge:   14.3764    magn:    2.0851    constr:    0.0000

     total cpu time spent up to now is       25.9 secs

     End of self-consistent calculation

 ------ SPIN UP ------------


          k = 0.0000 0.0000 0.0000 (   429 PWs)   bands (ev):

   -69.2447 -35.0228 -35.0228 -35.0228  10.1653  16.5957  16.5957  16.5957
    17.6489  17.6489  43.9586  43.9586

          k = 0.0000-0.1111 0.1111 (   439 PWs)   bands (ev):

   -69.2351 -35.0768 -35.0413 -35.0233  10.6813  16.4518  16.5671  16.8804
    17.5323  17.6614  41.1772  43.1350

          k = 0.0000-0.2222 0.2222 (   441 PWs)   bands (ev):

   -69.2092 -35.2120 -35.0858 -35.0229  12.0689  16.0995  16.3875  17.5105
    17.6472  17.7055  36.2008  40.8616

          k = 0.0000-0.3333 0.3333 (   446 PWs)   bands (ev):

   -69.1799 -35.3631 -35.1366 -35.0231  13.4550  15.7179  16.8009  17.7475
    17.7783  18.6192  31.1201  38.7212

          k = 0.0000-0.4444 0.4444 (   440 PWs)   bands (ev):

   -69.1604 -35.4600 -35.1691 -35.0225  13.7550  15.4786  17.7502  17.8397
    18.8743  19.3306  27.1387  37.5307

          k =-0.1111-0.1111 0.2222 (   444 PWs)   bands (ev):

   -69.2172 -35.1699 -35.0609 -35.0364  11.6495  16.2781  16.3173  17.4058
    17.4737  17.7426  38.4750  39.7554

          k =-0.1111-0.2222 0.3333 (   441 PWs)   bands (ev):

   -69.1893 -35.3014 -35.1143 -35.0409  13.1851  15.8864  16.1452  17.4938
    17.8597  18.5209  33.8179  37.2363

          k =-0.1111-0.3333 0.4444 (   449 PWs)   bands (ev):

   -69.1653 -35.4128 -35.1681 -35.0425  13.9883  15.5962  16.7866  17.7423
    18.1227  19.8946  29.0616  35.7365

          k =-0.1111 0.5556-0.4444 (   450 PWs)   bands (ev):

   -69.1557 -35.4560 -35.1895 -35.0433  14.0109  15.4913  17.2487  17.7691
    18.5610  21.1189  26.4693  35.1869

          k =-0.2222-0.2222 0.4444 (   448 PWs)   bands (ev):

   -69.1670 -35.3743 -35.1743 -35.0634  14.3817  15.5136  16.0939  17.5966
    18.0456  20.1678  31.6535  32.5475

          k =-0.2222 0.6667-0.4444 (   453 PWs)   bands (ev):

   -69.1525 -35.4039 -35.2378 -35.0712  14.6657  15.4924  16.2524  17.8003
    18.2527  22.5449  27.6495  31.1470

          k =-0.3333 0.6667-0.3333 (   454 PWs)   bands (ev):

   -69.1474 -35.3340 -35.3340 -35.0805  15.1250  15.6330  15.6330  18.0721
    18.0721  25.8172  25.8172  28.5112

          k = 0.0000 0.0000 0.2222 (   438 PWs)   bands (ev):

   -69.2251 -35.0907 -35.0590 -35.0590  11.1810  16.6082  16.6082  16.8817
    17.1855  17.8304  40.2918  42.4572

          k = 0.0000-0.1111 0.3333 (   447 PWs)   bands (ev):

   -69.2004 -35.2102 -35.1048 -35.0667  12.4973  16.3506  16.3687  17.1043
    17.5785  18.0187  36.5051  39.8684

          k = 0.0000-0.2222 0.4444 (   446 PWs)   bands (ev):

   -69.1718 -35.3534 -35.1563 -35.0641  13.7927  16.0255  16.1295  17.5230
    18.5637  18.5856  31.4555  38.0803

          k = 0.0000-0.3333 0.5556 (   444 PWs)   bands (ev):

   -69.1530 -35.4462 -35.1893 -35.0623  14.0380  15.8066  16.5158  17.5990
    19.2935  20.4084  27.2980  37.1676

          k =-0.1111-0.1111 0.4444 (   443 PWs)   bands (ev):

   -69.1743 -35.3038 -35.1582 -35.0921  13.7710  15.7768  16.4588  17.1862
    18.1365  18.7603  34.1723  35.0970

          k =-0.1111-0.2222 0.5556 (   447 PWs)   bands (ev):

   -69.1516 -35.3933 -35.2165 -35.0955  14.4710  15.5272  16.2580  17.5439
    18.6545  20.7437  29.6321  33.1951

          k =-0.1111 0.6667-0.3333 (   450 PWs)   bands (ev):

   -69.1427 -35.4290 -35.2408 -35.0951  14.4444  15.8427  15.9610  17.6307
    19.0127  22.7542  26.6337  32.6046

          k =-0.2222 0.2222 0.2222 (   450 PWs)   bands (ev):

   -69.1967 -35.2814 -35.0654 -35.0654  12.9313  15.8916  15.8916  17.6582
    17.6582  18.5559  36.2911  36.2911

          k =-0.2222 0.7778-0.3333 (   448 PWs)   bands (ev):

   -69.1384 -35.3848 -35.3020 -35.1039  15.0998  15.1108  15.9070  18.0217
    18.5751  23.8720  27.8723  29.2790

          k =-0.3333 0.3333 0.2222 (   450 PWs)   bands (ev):

   -69.1731 -35.3704 -35.1344 -35.0702  14.3024  15.5646  15.8755  17.7372
    17.8000  20.0624  31.6806  34.6488

          k = 0.5556-0.5556 0.2222 (   446 PWs)   bands (ev):

   -69.1577 -35.4141 -35.1932 -35.0730  14.4568  15.3944  16.8697  17.8427
    17.8578  22.0302  27.4907  33.7709

          k = 0.5556-0.6667 0.3333 (   450 PWs)   bands (ev):

   -69.1587 -35.3797 -35.1916 -35.1073  15.0475  15.4332  15.9121  17.8281
    17.8952  22.3171  29.8784  30.7802

          k = 0.4444-0.5556 0.3333 (   451 PWs)   bands (ev):

   -69.1530 -35.3549 -35.2492 -35.1160  15.0302  15.4521  16.1855  17.8931
    17.9241  24.6700  26.8918  29.9674

          k = 0.0000 0.0000 0.4444 (   442 PWs)   bands (ev):

   -69.1771 -35.2273 -35.1522 -35.1522  13.5319  16.0067  16.8942  16.8942
    17.6210  18.5504  37.0060  37.5888

          k = 0.0000-0.1111 0.5556 (   441 PWs)   bands (ev):

   -69.1509 -35.3296 -35.2061 -35.1648  14.3806  15.3397  16.8556  17.3143
    18.4408  19.8736  32.4257  35.2941

          k = 0.0000-0.2222 0.6667 (   444 PWs)   bands (ev):

   -69.1339 -35.4106 -35.2407 -35.1590  14.4482  15.2064  16.7164  17.4752
    19.2003  22.5200  27.8897  33.9188

          k =-0.1111-0.1111 0.6667 (   443 PWs)   bands (ev):

   -69.1305 -35.3710 -35.2734 -35.1839  14.6337  14.7851  16.9115  17.8613
    18.8171  22.3615  30.5256  31.1457

          k =-0.1111 0.7778-0.2222 (   445 PWs)   bands (ev):

   -69.1224 -35.3874 -35.3080 -35.1831  14.5153  14.7494  16.8061  18.1672
    19.0233  25.1857  27.1581  30.2678

          k = 0.5556-0.5556 0.4444 (   456 PWs)   bands (ev):

   -69.1535 -35.3173 -35.2035 -35.2035  15.4630  15.4630  15.7906  17.8834
    17.8834  25.2347  28.9511  28.9511

          k = 0.0000 0.0000 0.6667 (   434 PWs)   bands (ev):

   -69.1271 -35.3188 -35.2614 -35.2614  14.4214  14.6878  17.7798  17.7798
    18.4876  21.7872  32.7644  32.7644

          k = 0.0000-0.1111 0.7778 (   447 PWs)   bands (ev):

   -69.1123 -35.3692 -35.2984 -35.2679  14.2246  14.3070  17.9526  18.1875
    19.0967  24.7650  29.0188  31.1862

          k =-0.1111 0.8889-0.1111 (   460 PWs)   bands (ev):

   -69.1056 -35.3510 -35.3510 -35.2773  14.0773  14.0773  18.0641  18.9561
    18.9561  27.7995  27.7995  28.8351

          k = 0.0000 0.0000 0.8889 (   462 PWs)   bands (ev):

   -69.0987 -35.3452 -35.3364 -35.3364  13.8523  13.8570  18.9237  18.9237
    19.0676  27.2990  29.4364  29.4364

 ------ SPIN DOWN ----------


          k = 0.0000 0.0000 0.0000 (   429 PWs)   bands (ev):

   -66.7763 -32.5913 -32.5913 -32.5913  10.3429  18.1758  18.1758  18.1758
    20.5924  20.5924  43.7420  43.7420

          k = 0.0000-0.1111 0.1111 (   439 PWs)   bands (ev):

   -66.7656 -32.6509 -32.6114 -32.5917  10.8627  18.0088  18.1400  18.4807
    20.4170  20.6062  41.3434  43.0917

          k = 0.0000-0.2222 0.2222 (   441 PWs)   bands (ev):

   -66.7377 -32.7997 -32.6599 -32.5915  12.2955  17.6026  17.9651  19.3068
    20.1935  20.6612  36.7426  40.9847

          k = 0.0000-0.3333 0.3333 (   446 PWs)   bands (ev):

   -66.7060 -32.9660 -32.7152 -32.5918  14.0399  17.1668  18.0095  20.2310
    20.3661  20.7609  31.9336  38.8297

          k = 0.0000-0.4444 0.4444 (   440 PWs)   bands (ev):

   -66.6848 -33.0727 -32.7507 -32.5911  14.8751  16.8956  19.1226  20.3415
    20.8496  21.1532  28.2818  37.5937

          k =-0.1111-0.1111 0.2222 (   444 PWs)   bands (ev):

   -66.7463 -32.7533 -32.6329 -32.6061  11.8492  17.8036  17.8976  19.1041
    20.1713  20.6848  38.8589  40.0733

          k =-0.1111-0.2222 0.3333 (   441 PWs)   bands (ev):

   -66.7163 -32.8980 -32.6913 -32.6114  13.5268  17.3842  17.6464  20.0629
    20.1606  20.8259  34.4758  37.6383

          k =-0.1111-0.3333 0.4444 (   449 PWs)   bands (ev):

   -66.6901 -33.0205 -32.7498 -32.6130  14.9201  17.0232  17.9783  20.2191
    20.8222  21.5138  29.9878  36.1334

          k =-0.1111 0.5556-0.4444 (   450 PWs)   bands (ev):

   -66.6797 -33.0681 -32.7732 -32.6138  15.2194  16.8928  18.6086  20.3131
    20.9275  22.3497  27.6751  35.5713

          k =-0.2222-0.2222 0.4444 (   448 PWs)   bands (ev):

   -66.6920 -32.9781 -32.7572 -32.6358  15.0755  17.0884  17.3636  20.0865
    20.7730  21.8131  32.4193  33.1435

          k =-0.2222 0.6667-0.4444 (   453 PWs)   bands (ev):

   -66.6762 -33.0104 -32.8270 -32.6441  15.8657  16.9241  17.5616  20.2852
    20.7808  23.7935  28.6257  31.7921

          k =-0.3333 0.6667-0.3333 (   454 PWs)   bands (ev):

   -66.6706 -32.9333 -32.9333 -32.6541  16.3838  17.0596  17.0596  20.5390
    20.5390  26.8177  26.8177  29.3118

          k = 0.0000 0.0000 0.2222 (   438 PWs)   bands (ev):

   -66.7549 -32.6665 -32.6308 -32.6308  11.3708  18.1617  18.1617  18.4851
    19.9797  20.8099  40.5214  42.6442

          k = 0.0000-0.1111 0.3333 (   447 PWs)   bands (ev):

   -66.7281 -32.7980 -32.6806 -32.6394  12.7532  17.8836  18.0593  19.2311
    19.5450  20.9729  37.0688  40.1867

          k = 0.0000-0.2222 0.4444 (   446 PWs)   bands (ev):

   -66.6972 -32.9552 -32.7368 -32.6367  14.4371  17.4921  17.8228  19.7180
    20.3040  21.2085  32.2597  38.4064

          k = 0.0000-0.3333 0.5556 (   444 PWs)   bands (ev):

   -66.6768 -33.0572 -32.7729 -32.6346  15.2530  17.2439  18.1777  19.9536
    21.1123  22.0392  28.4030  37.6751

          k =-0.1111-0.1111 0.4444 (   443 PWs)   bands (ev):

   -66.6999 -32.9008 -32.7392 -32.6671  14.2607  17.6510  17.9155  19.3097
    20.0259  21.2917  34.9052  35.6312

          k =-0.1111-0.2222 0.5556 (   447 PWs)   bands (ev):

   -66.6753 -32.9988 -32.8032 -32.6707  15.5620  17.2543  17.7526  19.6516
    20.7002  22.4570  30.5184  33.8177

          k =-0.1111 0.6667-0.3333 (   450 PWs)   bands (ev):

   -66.6655 -33.0378 -32.8298 -32.6703  15.8669  17.4290  17.5373  19.8126
    20.9594  23.9938  27.7664  33.2212

          k =-0.2222 0.2222 0.2222 (   450 PWs)   bands (ev):

   -66.7242 -32.8758 -32.6379 -32.6379  13.1783  17.3998  17.3998  20.1978
    20.4944  20.4944  36.7465  36.7465

          k =-0.2222 0.7778-0.3333 (   448 PWs)   bands (ev):

   -66.6610 -32.9890 -32.8974 -32.6798  16.5306  16.8524  17.4251  20.0491
    20.6122  25.1031  28.8665  30.0056

          k =-0.3333 0.3333 0.2222 (   450 PWs)   bands (ev):

   -66.6988 -32.9738 -32.7135 -32.6434  14.8624  16.9760  17.1865  20.4695
    20.7394  21.6031  32.3837  35.0968

          k = 0.5556-0.5556 0.2222 (   446 PWs)   bands (ev):

   -66.6818 -33.0219 -32.7780 -32.6467  15.5943  16.7456  17.8046  20.5370
    20.8677  23.2006  28.4836  34.1903

          k = 0.5556-0.6667 0.3333 (   450 PWs)   bands (ev):

   -66.6829 -32.9839 -32.7767 -32.6841  16.0689  16.7861  16.9753  20.6250
    20.8368  23.5712  30.6152  31.4274

          k = 0.4444-0.5556 0.3333 (   451 PWs)   bands (ev):

   -66.6767 -32.9567 -32.8399 -32.6938  16.2348  16.7265  17.2816  20.7043
    20.8560  25.5908  27.8424  30.6318

          k = 0.0000 0.0000 0.4444 (   442 PWs)   bands (ev):

   -66.7031 -32.8174 -32.7325 -32.7325  13.9592  18.4189  18.4189  18.4545
    19.2874  21.3097  37.6980  38.1088

          k = 0.0000-0.1111 0.5556 (   441 PWs)   bands (ev):

   -66.6746 -32.9290 -32.7915 -32.7468  15.3242  17.4561  18.3729  19.0601
    20.1695  21.9804  33.1753  35.8237

          k = 0.0000-0.2222 0.6667 (   444 PWs)   bands (ev):

   -66.6561 -33.0172 -32.8293 -32.7407  16.0112  17.0369  18.2180  19.3750
    21.0098  23.8633  28.8588  34.4126

          k =-0.1111-0.1111 0.6667 (   443 PWs)   bands (ev):

   -66.6525 -32.9737 -32.8654 -32.7675  16.1201  16.7959  18.4583  19.5702
    20.6357  23.7625  31.3641  31.7525

          k =-0.1111 0.7778-0.2222 (   445 PWs)   bands (ev):

   -66.6438 -32.9912 -32.9036 -32.7665  16.3594  16.5871  18.2870  19.9383
    20.8464  26.2306  28.1042  30.9242

          k = 0.5556-0.5556 0.4444 (   456 PWs)   bands (ev):

   -66.6771 -32.9152 -32.7900 -32.7900  16.6767  16.6767  16.8219  20.8818
    20.8818  26.1565  29.6495  29.6495

          k = 0.0000 0.0000 0.6667 (   434 PWs)   bands (ev):

   -66.6489 -32.9170 -32.8523 -32.8523  15.9006  16.8098  19.3591  19.3591
    20.2328  23.2489  33.2596  33.2596

          k = 0.0000-0.1111 0.7778 (   447 PWs)   bands (ev):

   -66.6327 -32.9710 -32.8927 -32.8597  16.0609  16.2561  19.5711  19.8378
    20.8964  25.7316  29.6984  31.6159

          k =-0.1111 0.8889-0.1111 (   460 PWs)   bands (ev):

   -66.6253 -32.9505 -32.9505 -32.8695  15.9960  15.9960  19.6753  20.7280
    20.7280  28.4911  28.4911  29.3370

          k = 0.0000 0.0000 0.8889 (   462 PWs)   bands (ev):

   -66.6178 -32.9440 -32.9343 -32.9343  15.7572  15.7992  20.6795  20.6795
    20.8685  27.8479  29.7558  29.7558

     the Fermi energy is    18.8236 ev

!    total energy              =    -329.26263362 Ry
     Harris-Foulkes estimate   =    -329.26263359 Ry
     estimated scf accuracy    <          7.2E-09 Ry

     total all-electron energy =     -2545.559169 Ry

     The total energy is the sum of the following terms:

     one-electron contribution =    -107.37500523 Ry
     hartree contribution      =      64.55184042 Ry
     xc contribution           =     -34.83794791 Ry
     ewald contribution        =    -175.45080285 Ry
     one-center paw contrib.   =     -76.15194099 Ry
     smearing contrib. (-TS)   =       0.00122295 Ry

     total magnetization       =     2.05 Bohr mag/cell
     absolute magnetization    =     2.15 Bohr mag/cell

     convergence has been achieved in  13 iterations

     Forces acting on atoms (Ry/au):


     negative rho (up, down):  0.000E+00 1.179E-04
     atom    1 type  1   force =     0.00000000    0.00000000    0.00000000

     Total force =     0.000000     Total SCF correction =     0.000000


     entering subroutine stress ...


     negative rho (up, down):  0.000E+00 1.179E-04
          total   stress  (Ry/bohr**3)                   (kbar)     P=  -44.96
  -0.00030561   0.00000000  -0.00000000        -44.96      0.00     -0.00
   0.00000000  -0.00030561   0.00000000          0.00    -44.96      0.00
  -0.00000000   0.00000000  -0.00030561         -0.00      0.00    -44.96


     Writing output data file Fe_bcc.save

     init_run     :      1.54s CPU      1.59s WALL (       1 calls)
     electrons    :     23.60s CPU     23.93s WALL (       1 calls)
     forces       :      0.12s CPU      0.14s WALL (       1 calls)
     stress       :      0.44s CPU      0.45s WALL (       1 calls)

     Called by init_run:
     wfcinit      :      0.52s CPU      0.52s WALL (       1 calls)
     potinit      :      0.50s CPU      0.51s WALL (       1 calls)

     Called by electrons:
     c_bands      :     14.35s CPU     14.46s WALL (      13 calls)
     sum_band     :      2.71s CPU      2.76s WALL (      13 calls)
     v_of_rho     :      0.32s CPU      0.33s WALL (      14 calls)
     newd         :      0.19s CPU      0.20s WALL (      14 calls)
     mix_rho      :      0.04s CPU      0.04s WALL (      13 calls)

     Called by c_bands:
     init_us_2    :      0.32s CPU      0.33s WALL (    2030 calls)
     cegterg      :     13.72s CPU     13.82s WALL (     910 calls)

     Called by *egterg:
     h_psi        :     11.76s CPU     11.90s WALL (    2868 calls)
     s_psi        :      0.32s CPU      0.26s WALL (    2868 calls)
     g_psi        :      0.07s CPU      0.07s WALL (    1888 calls)
     cdiaghg      :      0.80s CPU      0.81s WALL (    2798 calls)

     Called by h_psi:
     add_vuspsi   :      0.32s CPU      0.29s WALL (    2868 calls)

     General routines
     calbec       :      0.34s CPU      0.35s WALL (    3918 calls)
     fft          :      0.17s CPU      0.17s WALL (     468 calls)
     ffts         :      0.02s CPU      0.02s WALL (      54 calls)
     fftw         :     11.96s CPU     12.11s WALL (   63970 calls)
     interpolate  :      0.04s CPU      0.04s WALL (      54 calls)
     davcio       :      0.00s CPU      0.00s WALL (      70 calls)


     PAW routines
     PAW_pot      :      6.46s CPU      6.61s WALL (      14 calls)
     PAW_symme    :      0.02s CPU      0.02s WALL (      27 calls)

     PWSCF        :    26.19s CPU        26.70s WALL


   This run was terminated on:  14:40:51  12May2015            

=------------------------------------------------------------------------------=
   JOB DONE.
=------------------------------------------------------------------------------=
