
     Program PWSCF v.5.1.2 starts on 12May2015 at 14:41:18 

     This program is part of the open-source Quantum ESPRESSO suite
     for quantum simulation of materials; please cite
         "P. Giannozzi et al., J. Phys.:Condens. Matter 21 395502 (2009);
          URL http://www.quantum-espresso.org", 
     in publications or presentations arising from this work. More details at
     http://www.quantum-espresso.org/quote

     Serial version
     Reading input from Fe_bcc_5.33_9.pw.in

     Current dimensions of program PWSCF are:
     Max number of different atomic species (ntypx) = 10
     Max number of k-points (npk) =  40000
     Max angular momentum in pseudopotentials (lmaxx) =  3
               file Fe.pbe-spn-kjpaw_psl.0.2.1.UPF: wavefunction(s)  3D renormalized

     G-vector sticks info
     --------------------
     sticks:   dense  smooth     PW     G-vecs:    dense   smooth      PW
     Sum         399     315     99                 5017     3559     675

     Generating pointlists ...
     new r_m :   0.3572 (alat units)  1.9041 (a.u.) for type    1


     bravais-lattice index     =            3
     lattice parameter (alat)  =       5.3300  a.u.
     unit-cell volume          =      75.7097 (a.u.)^3
     number of atoms/cell      =            1
     number of atomic types    =            1
     number of electrons       =        16.00
     number of Kohn-Sham states=           12
     kinetic-energy cutoff     =      50.0000  Ry
     charge density cutoff     =     250.0000  Ry
     convergence threshold     =      1.0E-08
     mixing beta               =       0.7000
     number of iterations used =            8  plain     mixing
     Exchange-correlation      =  SLA  PW   PBX  PBC ( 1  4  3  4 0 0)

     celldm(1)=   5.330000  celldm(2)=   0.000000  celldm(3)=   0.000000
     celldm(4)=   0.000000  celldm(5)=   0.000000  celldm(6)=   0.000000

     crystal axes: (cart. coord. in units of alat)
               a(1) = (   0.500000   0.500000   0.500000 )  
               a(2) = (  -0.500000   0.500000   0.500000 )  
               a(3) = (  -0.500000  -0.500000   0.500000 )  

     reciprocal axes: (cart. coord. in units 2 pi/alat)
               b(1) = (  1.000000  0.000000  1.000000 )  
               b(2) = ( -1.000000  1.000000  0.000000 )  
               b(3) = (  0.000000 -1.000000  1.000000 )  


     PseudoPot. # 1 for Fe read from file:
     ./Fe.pbe-spn-kjpaw_psl.0.2.1.UPF
     MD5 check sum: a0a08122d52b112de96d1da1d7dd020f
     Pseudo is Projector augmented-wave + core cor, Zval = 16.0
     Generated using "atomic" code by A. Dal Corso  v.5.0.2 svn rev. 9415
     Shape of augmentation charge: PSQ
     Using radial grid of 1191 points,  6 beta functions with: 
                l(1) =   0
                l(2) =   0
                l(3) =   1
                l(4) =   1
                l(5) =   2
                l(6) =   2
     Q(r) pseudized with 0 coefficients 


     atomic species   valence    mass     pseudopotential
        Fe            16.00    55.85000     Fe( 1.00)

     Starting magnetic structure 
     atomic species   magnetization
        Fe           0.700

     48 Sym. Ops., with inversion, found



   Cartesian axes

     site n.     atom                  positions (alat units)
         1           Fe  tau(   1) = (   0.0000000   0.0000000   0.0000000  )

     number of k points=    70  Marzari-Vanderbilt smearing, width (Ry)=  0.0250
                       cart. coord. in units 2pi/alat
        k(    1) = (   0.0000000   0.0000000   0.0000000), wk =   0.0013717
        k(    2) = (   0.0000000  -0.1111111   0.1111111), wk =   0.0164609
        k(    3) = (   0.0000000  -0.2222222   0.2222222), wk =   0.0164609
        k(    4) = (   0.0000000  -0.3333333   0.3333333), wk =   0.0164609
        k(    5) = (   0.0000000  -0.4444444   0.4444444), wk =   0.0164609
        k(    6) = (  -0.1111111  -0.1111111   0.2222222), wk =   0.0329218
        k(    7) = (  -0.1111111  -0.2222222   0.3333333), wk =   0.0658436
        k(    8) = (  -0.1111111  -0.3333333   0.4444444), wk =   0.0658436
        k(    9) = (  -0.1111111   0.5555556  -0.4444444), wk =   0.0329218
        k(   10) = (  -0.2222222  -0.2222222   0.4444444), wk =   0.0329218
        k(   11) = (  -0.2222222   0.6666667  -0.4444444), wk =   0.0658436
        k(   12) = (  -0.3333333   0.6666667  -0.3333333), wk =   0.0109739
        k(   13) = (   0.0000000   0.0000000   0.2222222), wk =   0.0082305
        k(   14) = (   0.0000000  -0.1111111   0.3333333), wk =   0.0329218
        k(   15) = (   0.0000000  -0.2222222   0.4444444), wk =   0.0329218
        k(   16) = (   0.0000000  -0.3333333   0.5555556), wk =   0.0329218
        k(   17) = (  -0.1111111  -0.1111111   0.4444444), wk =   0.0329218
        k(   18) = (  -0.1111111  -0.2222222   0.5555556), wk =   0.0658436
        k(   19) = (  -0.1111111   0.6666667  -0.3333333), wk =   0.0329218
        k(   20) = (  -0.2222222   0.2222222   0.2222222), wk =   0.0109739
        k(   21) = (  -0.2222222   0.7777778  -0.3333333), wk =   0.0329218
        k(   22) = (  -0.3333333   0.3333333   0.2222222), wk =   0.0329218
        k(   23) = (   0.5555556  -0.5555556   0.2222222), wk =   0.0329218
        k(   24) = (   0.5555556  -0.6666667   0.3333333), wk =   0.0329218
        k(   25) = (   0.4444444  -0.5555556   0.3333333), wk =   0.0329218
        k(   26) = (   0.0000000   0.0000000   0.4444444), wk =   0.0082305
        k(   27) = (   0.0000000  -0.1111111   0.5555556), wk =   0.0329218
        k(   28) = (   0.0000000  -0.2222222   0.6666667), wk =   0.0329218
        k(   29) = (  -0.1111111  -0.1111111   0.6666667), wk =   0.0329218
        k(   30) = (  -0.1111111   0.7777778  -0.2222222), wk =   0.0329218
        k(   31) = (   0.5555556  -0.5555556   0.4444444), wk =   0.0109739
        k(   32) = (   0.0000000   0.0000000   0.6666667), wk =   0.0082305
        k(   33) = (   0.0000000  -0.1111111   0.7777778), wk =   0.0329218
        k(   34) = (  -0.1111111   0.8888889  -0.1111111), wk =   0.0109739
        k(   35) = (   0.0000000   0.0000000   0.8888889), wk =   0.0082305
        k(   36) = (   0.0000000   0.0000000   0.0000000), wk =   0.0013717
        k(   37) = (   0.0000000  -0.1111111   0.1111111), wk =   0.0164609
        k(   38) = (   0.0000000  -0.2222222   0.2222222), wk =   0.0164609
        k(   39) = (   0.0000000  -0.3333333   0.3333333), wk =   0.0164609
        k(   40) = (   0.0000000  -0.4444444   0.4444444), wk =   0.0164609
        k(   41) = (  -0.1111111  -0.1111111   0.2222222), wk =   0.0329218
        k(   42) = (  -0.1111111  -0.2222222   0.3333333), wk =   0.0658436
        k(   43) = (  -0.1111111  -0.3333333   0.4444444), wk =   0.0658436
        k(   44) = (  -0.1111111   0.5555556  -0.4444444), wk =   0.0329218
        k(   45) = (  -0.2222222  -0.2222222   0.4444444), wk =   0.0329218
        k(   46) = (  -0.2222222   0.6666667  -0.4444444), wk =   0.0658436
        k(   47) = (  -0.3333333   0.6666667  -0.3333333), wk =   0.0109739
        k(   48) = (   0.0000000   0.0000000   0.2222222), wk =   0.0082305
        k(   49) = (   0.0000000  -0.1111111   0.3333333), wk =   0.0329218
        k(   50) = (   0.0000000  -0.2222222   0.4444444), wk =   0.0329218
        k(   51) = (   0.0000000  -0.3333333   0.5555556), wk =   0.0329218
        k(   52) = (  -0.1111111  -0.1111111   0.4444444), wk =   0.0329218
        k(   53) = (  -0.1111111  -0.2222222   0.5555556), wk =   0.0658436
        k(   54) = (  -0.1111111   0.6666667  -0.3333333), wk =   0.0329218
        k(   55) = (  -0.2222222   0.2222222   0.2222222), wk =   0.0109739
        k(   56) = (  -0.2222222   0.7777778  -0.3333333), wk =   0.0329218
        k(   57) = (  -0.3333333   0.3333333   0.2222222), wk =   0.0329218
        k(   58) = (   0.5555556  -0.5555556   0.2222222), wk =   0.0329218
        k(   59) = (   0.5555556  -0.6666667   0.3333333), wk =   0.0329218
        k(   60) = (   0.4444444  -0.5555556   0.3333333), wk =   0.0329218
        k(   61) = (   0.0000000   0.0000000   0.4444444), wk =   0.0082305
        k(   62) = (   0.0000000  -0.1111111   0.5555556), wk =   0.0329218
        k(   63) = (   0.0000000  -0.2222222   0.6666667), wk =   0.0329218
        k(   64) = (  -0.1111111  -0.1111111   0.6666667), wk =   0.0329218
        k(   65) = (  -0.1111111   0.7777778  -0.2222222), wk =   0.0329218
        k(   66) = (   0.5555556  -0.5555556   0.4444444), wk =   0.0109739
        k(   67) = (   0.0000000   0.0000000   0.6666667), wk =   0.0082305
        k(   68) = (   0.0000000  -0.1111111   0.7777778), wk =   0.0329218
        k(   69) = (  -0.1111111   0.8888889  -0.1111111), wk =   0.0109739
        k(   70) = (   0.0000000   0.0000000   0.8888889), wk =   0.0082305

     Dense  grid:     5017 G-vectors     FFT dimensions: (  24,  24,  24)

     Smooth grid:     3559 G-vectors     FFT dimensions: (  24,  24,  24)

     Largest allocated arrays     est. size (Mb)     dimensions
        Kohn-Sham Wavefunctions         0.09 Mb     (     466,   12)
        NL pseudopotentials             0.13 Mb     (     466,   18)
        Each V/rho on FFT grid          0.42 Mb     (   13824,   2)
        Each G-vector array             0.04 Mb     (    5017)
        G-vector shells                 0.00 Mb     (      84)
     Largest temporary arrays     est. size (Mb)     dimensions
        Auxiliary wavefunctions         0.34 Mb     (     466,   48)
        Each subspace H/S matrix        0.04 Mb     (      48,   48)
        Each <psi_i|beta_j> matrix      0.00 Mb     (      18,   12)
        Arrays for rho mixing           1.69 Mb     (   13824,    8)

     Check: negative/imaginary core charge=   -0.000417    0.000000

     Initial potential from superposition of free atoms

     starting charge   15.99956, renormalised to   16.00000
     Starting wfc are   13 randomized atomic wfcs

     total cpu time spent up to now is        1.9 secs

     Self-consistent Calculation

     iteration #  1     ecut=    50.00 Ry     beta=0.70
     Davidson diagonalization with overlap
     ethr =  1.00E-02,  avg # of iterations =  3.3

     negative rho (up, down):  0.000E+00 3.085E-04

     Magnetic moment per site:
     atom:    1    charge:   14.2646    magn:    5.6422    constr:    0.0000

     total cpu time spent up to now is        4.0 secs

     total energy              =    -328.98897463 Ry
     Harris-Foulkes estimate   =    -328.04223409 Ry
     estimated scf accuracy    <       1.53296901 Ry

     total magnetization       =     3.78 Bohr mag/cell
     absolute magnetization    =     3.81 Bohr mag/cell

     iteration #  2     ecut=    50.00 Ry     beta=0.70
     Davidson diagonalization with overlap
     ethr =  9.58E-03,  avg # of iterations =  1.2

     negative rho (up, down):  0.000E+00 3.309E-04

     Magnetic moment per site:
     atom:    1    charge:   14.4846    magn:    3.3682    constr:    0.0000

     total cpu time spent up to now is        5.8 secs

     total energy              =    -329.17046988 Ry
     Harris-Foulkes estimate   =    -329.09572517 Ry
     estimated scf accuracy    <       0.33186298 Ry

     total magnetization       =     3.01 Bohr mag/cell
     absolute magnetization    =     3.14 Bohr mag/cell

     iteration #  3     ecut=    50.00 Ry     beta=0.70
     Davidson diagonalization with overlap
     ethr =  2.07E-03,  avg # of iterations =  2.1

     negative rho (up, down):  0.000E+00 3.277E-04

     Magnetic moment per site:
     atom:    1    charge:   14.3687    magn:    2.4228    constr:    0.0000

     total cpu time spent up to now is        7.7 secs

     total energy              =    -329.18778366 Ry
     Harris-Foulkes estimate   =    -329.33935406 Ry
     estimated scf accuracy    <       0.43974617 Ry

     total magnetization       =     2.40 Bohr mag/cell
     absolute magnetization    =     2.54 Bohr mag/cell

     iteration #  4     ecut=    50.00 Ry     beta=0.70
     Davidson diagonalization with overlap
     ethr =  2.07E-03,  avg # of iterations =  2.0

     negative rho (up, down):  0.000E+00 1.685E-04

     Magnetic moment per site:
     atom:    1    charge:   14.3977    magn:    2.1672    constr:    0.0000

     total cpu time spent up to now is        9.6 secs

     total energy              =    -329.25857521 Ry
     Harris-Foulkes estimate   =    -329.25756950 Ry
     estimated scf accuracy    <       0.00241733 Ry

     total magnetization       =     2.24 Bohr mag/cell
     absolute magnetization    =     2.40 Bohr mag/cell

     iteration #  5     ecut=    50.00 Ry     beta=0.70
     Davidson diagonalization with overlap
     ethr =  1.51E-05,  avg # of iterations =  3.3

     negative rho (up, down):  0.000E+00 1.551E-04

     Magnetic moment per site:
     atom:    1    charge:   14.3849    magn:    2.1444    constr:    0.0000

     total cpu time spent up to now is       11.8 secs

     total energy              =    -329.26251907 Ry
     Harris-Foulkes estimate   =    -329.26226068 Ry
     estimated scf accuracy    <       0.00050106 Ry

     total magnetization       =     2.09 Bohr mag/cell
     absolute magnetization    =     2.22 Bohr mag/cell

     iteration #  6     ecut=    50.00 Ry     beta=0.70
     Davidson diagonalization with overlap
     ethr =  3.13E-06,  avg # of iterations =  2.1

     negative rho (up, down):  0.000E+00 1.013E-04

     Magnetic moment per site:
     atom:    1    charge:   14.3820    magn:    2.0562    constr:    0.0000

     total cpu time spent up to now is       13.7 secs

     total energy              =    -329.26259387 Ry
     Harris-Foulkes estimate   =    -329.26273677 Ry
     estimated scf accuracy    <       0.00038826 Ry

     total magnetization       =     2.07 Bohr mag/cell
     absolute magnetization    =     2.19 Bohr mag/cell

     iteration #  7     ecut=    50.00 Ry     beta=0.70
     Davidson diagonalization with overlap
     ethr =  2.43E-06,  avg # of iterations =  1.5

     negative rho (up, down):  0.000E+00 1.329E-04

     Magnetic moment per site:
     atom:    1    charge:   14.3859    magn:    2.1189    constr:    0.0000

     total cpu time spent up to now is       15.4 secs

     total energy              =    -329.26289724 Ry
     Harris-Foulkes estimate   =    -329.26283661 Ry
     estimated scf accuracy    <       0.00006898 Ry

     total magnetization       =     2.05 Bohr mag/cell
     absolute magnetization    =     2.15 Bohr mag/cell

     iteration #  8     ecut=    50.00 Ry     beta=0.70
     Davidson diagonalization with overlap
     ethr =  4.31E-07,  avg # of iterations =  2.0

     negative rho (up, down):  0.000E+00 1.304E-04

     Magnetic moment per site:
     atom:    1    charge:   14.3867    magn:    2.1078    constr:    0.0000

     total cpu time spent up to now is       17.1 secs

     total energy              =    -329.26294578 Ry
     Harris-Foulkes estimate   =    -329.26293113 Ry
     estimated scf accuracy    <       0.00002474 Ry

     total magnetization       =     2.06 Bohr mag/cell
     absolute magnetization    =     2.17 Bohr mag/cell

     iteration #  9     ecut=    50.00 Ry     beta=0.70
     Davidson diagonalization with overlap
     ethr =  1.55E-07,  avg # of iterations =  2.0

     negative rho (up, down):  0.000E+00 1.262E-04

     Magnetic moment per site:
     atom:    1    charge:   14.3857    magn:    2.0956    constr:    0.0000

     total cpu time spent up to now is       18.8 secs

     total energy              =    -329.26295390 Ry
     Harris-Foulkes estimate   =    -329.26295102 Ry
     estimated scf accuracy    <       0.00000842 Ry

     total magnetization       =     2.06 Bohr mag/cell
     absolute magnetization    =     2.16 Bohr mag/cell

     iteration # 10     ecut=    50.00 Ry     beta=0.70
     Davidson diagonalization with overlap
     ethr =  5.26E-08,  avg # of iterations =  1.5

     negative rho (up, down):  0.000E+00 1.247E-04

     Magnetic moment per site:
     atom:    1    charge:   14.3854    magn:    2.0921    constr:    0.0000

     total cpu time spent up to now is       20.4 secs

     total energy              =    -329.26295619 Ry
     Harris-Foulkes estimate   =    -329.26295576 Ry
     estimated scf accuracy    <       0.00000050 Ry

     total magnetization       =     2.05 Bohr mag/cell
     absolute magnetization    =     2.16 Bohr mag/cell

     iteration # 11     ecut=    50.00 Ry     beta=0.70
     Davidson diagonalization with overlap
     ethr =  3.15E-09,  avg # of iterations =  2.5

     negative rho (up, down):  0.000E+00 1.249E-04

     Magnetic moment per site:
     atom:    1    charge:   14.3855    magn:    2.0926    constr:    0.0000

     total cpu time spent up to now is       22.2 secs

     total energy              =    -329.26295658 Ry
     Harris-Foulkes estimate   =    -329.26295646 Ry
     estimated scf accuracy    <       0.00000001 Ry

     total magnetization       =     2.05 Bohr mag/cell
     absolute magnetization    =     2.16 Bohr mag/cell

     iteration # 12     ecut=    50.00 Ry     beta=0.70
     Davidson diagonalization with overlap
     ethr =  8.84E-11,  avg # of iterations =  2.6

     negative rho (up, down):  0.000E+00 1.244E-04

     Magnetic moment per site:
     atom:    1    charge:   14.3855    magn:    2.0915    constr:    0.0000

     total cpu time spent up to now is       24.1 secs

     total energy              =    -329.26295658 Ry
     Harris-Foulkes estimate   =    -329.26295659 Ry
     estimated scf accuracy    <       0.00000003 Ry

     total magnetization       =     2.05 Bohr mag/cell
     absolute magnetization    =     2.16 Bohr mag/cell

     iteration # 13     ecut=    50.00 Ry     beta=0.70
     Davidson diagonalization with overlap
     ethr =  8.84E-11,  avg # of iterations =  2.0

     negative rho (up, down):  0.000E+00 1.245E-04

     Magnetic moment per site:
     atom:    1    charge:   14.3855    magn:    2.0916    constr:    0.0000

     total cpu time spent up to now is       26.0 secs

     End of self-consistent calculation

 ------ SPIN UP ------------


          k = 0.0000 0.0000 0.0000 (   429 PWs)   bands (ev):

   -69.4911 -35.2788 -35.2788 -35.2788   9.9742  16.3645  16.3645  16.3645
    17.3812  17.3812  43.5887  43.5887

          k = 0.0000-0.1111 0.1111 (   441 PWs)   bands (ev):

   -69.4820 -35.3313 -35.2969 -35.2795  10.4845  16.2232  16.3362  16.6447
    17.2676  17.3935  40.7925  42.7577

          k = 0.0000-0.2222 0.2222 (   449 PWs)   bands (ev):

   -69.4576 -35.4616 -35.3403 -35.2796  11.8643  15.8770  16.1558  17.2505
    17.3990  17.4365  35.8087  40.4807

          k = 0.0000-0.3333 0.3333 (   446 PWs)   bands (ev):

   -69.4294 -35.6066 -35.3887 -35.2792  13.2507  15.5018  16.5585  17.4883
    17.5076  18.3551  30.7498  38.3601

          k = 0.0000-0.4444 0.4444 (   452 PWs)   bands (ev):

   -69.4113 -35.7006 -35.4208 -35.2795  13.5569  15.2664  17.4854  17.5674
    18.6040  19.0543  26.7758  37.1643

          k =-0.1111-0.1111 0.2222 (   449 PWs)   bands (ev):

   -69.4651 -35.4210 -35.3160 -35.2926  11.4446  16.0522  16.0892  17.1455
    17.2282  17.4733  38.0934  39.3559

          k =-0.1111-0.2222 0.3333 (   451 PWs)   bands (ev):

   -69.4388 -35.5476 -35.3681 -35.2973  12.9734  15.6656  15.9171  17.2358
    17.5884  18.2577  33.4370  36.8306

          k =-0.1111-0.3333 0.4444 (   458 PWs)   bands (ev):

   -69.4158 -35.6550 -35.4197 -35.2987  13.7836  15.3815  16.5404  17.4804
    17.8520  19.6108  28.6945  35.3520

          k =-0.1111 0.5556-0.4444 (   451 PWs)   bands (ev):

   -69.4063 -35.6960 -35.4399 -35.2988  13.8116  15.2787  16.9957  17.5052
    18.2944  20.8361  26.1100  34.8127

          k =-0.2222-0.2222 0.4444 (   453 PWs)   bands (ev):

   -69.4173 -35.6177 -35.4253 -35.3185  14.1696  15.2947  15.8690  17.3379
    17.7733  19.8811  31.2911  32.1573

          k =-0.2222 0.6667-0.4444 (   457 PWs)   bands (ev):

   -69.4034 -35.6462 -35.4863 -35.3260  14.4580  15.2766  16.0186  17.5378
    17.9830  22.2367  27.2968  30.7747

          k =-0.3333 0.6667-0.3333 (   454 PWs)   bands (ev):

   -69.3984 -35.5786 -35.5786 -35.3347  14.9165  15.4103  15.4103  17.8064
    17.8064  25.4933  25.4933  28.1369

          k = 0.0000 0.0000 0.2222 (   450 PWs)   bands (ev):

   -69.4730 -35.3457 -35.3145 -35.3145  10.9791  16.3771  16.3771  16.6461
    16.9275  17.5589  39.9215  42.0460

          k = 0.0000-0.1111 0.3333 (   447 PWs)   bands (ev):

   -69.4489 -35.4594 -35.3581 -35.3214  12.2899  16.1165  16.1419  16.8566
    17.3317  17.7437  36.1227  39.4787

          k = 0.0000-0.2222 0.4444 (   450 PWs)   bands (ev):

   -69.4218 -35.5975 -35.4079 -35.3191  13.5833  15.8044  15.8936  17.2688
    18.3006  18.3063  31.0807  37.7022

          k = 0.0000-0.3333 0.5556 (   450 PWs)   bands (ev):

   -69.4040 -35.6869 -35.4399 -35.3176  13.8362  15.5891  16.2718  17.3403
    19.0179  20.1214  26.9353  36.7532

          k =-0.1111-0.1111 0.4444 (   447 PWs)   bands (ev):

   -69.4241 -35.5496 -35.4098 -35.3463  13.5578  15.5500  16.2300  16.9406
    17.8719  18.4838  33.7968  34.6980

          k =-0.1111-0.2222 0.5556 (   454 PWs)   bands (ev):

   -69.4026 -35.6362 -35.4662 -35.3496  14.2598  15.3022  16.0300  17.2907
    18.3842  20.4453  29.2617  32.8126

          k =-0.1111 0.6667-0.3333 (   450 PWs)   bands (ev):

   -69.3938 -35.6702 -35.4892 -35.3487  14.2384  15.6120  15.7400  17.3751
    18.7401  22.4546  26.2786  32.2323

          k =-0.2222 0.2222 0.2222 (   456 PWs)   bands (ev):

   -69.4457 -35.5283 -35.3206 -35.3206  12.7175  15.6708  15.6708  17.3923
    17.3923  18.2927  35.9096  35.9096

          k =-0.2222 0.7778-0.3333 (   454 PWs)   bands (ev):

   -69.3900 -35.6281 -35.5484 -35.3576  14.8821  14.8925  15.6844  17.7628
    18.3071  23.5485  27.5234  28.9070

          k =-0.3333 0.3333 0.2222 (   454 PWs)   bands (ev):

   -69.4231 -35.6140 -35.3868 -35.3249  14.0893  15.3501  15.6509  17.4718
    17.5298  19.7778  31.3084  34.2814

          k = 0.5556-0.5556 0.2222 (   452 PWs)   bands (ev):

   -69.4084 -35.6558 -35.4438 -35.3277  14.2515  15.1830  16.6341  17.5758
    17.5853  21.7318  27.1347  33.4069

          k = 0.5556-0.6667 0.3333 (   460 PWs)   bands (ev):

   -69.4096 -35.6230 -35.4425 -35.3609  14.8355  15.2165  15.6870  17.5600
    17.6232  22.0075  29.5158  30.4024

          k = 0.4444-0.5556 0.3333 (   457 PWs)   bands (ev):

   -69.4040 -35.5991 -35.4975 -35.3692  14.8211  15.2366  15.9573  17.6236
    17.6524  24.3501  26.5439  29.5930

          k = 0.0000 0.0000 0.4444 (   446 PWs)   bands (ev):

   -69.4269 -35.4763 -35.4040 -35.4040  13.3147  15.7718  16.6590  16.6590
    17.3737  18.2665  36.6358  37.1794

          k = 0.0000-0.1111 0.5556 (   446 PWs)   bands (ev):

   -69.4018 -35.5748 -35.4558 -35.4163  14.1664  15.1170  16.6213  17.0689
    18.1800  19.5802  32.0382  34.9044

          k = 0.0000-0.2222 0.6667 (   446 PWs)   bands (ev):

   -69.3855 -35.6527 -35.4894 -35.4102  14.2407  14.9850  16.4843  17.2255
    18.9263  22.2142  27.5339  33.5326

          k =-0.1111-0.1111 0.6667 (   445 PWs)   bands (ev):

   -69.3822 -35.6147 -35.5207 -35.4342  14.4207  14.5722  16.6751  17.6092
    18.5488  22.0526  30.1666  30.7687

          k =-0.1111 0.7778-0.2222 (   451 PWs)   bands (ev):

   -69.3747 -35.6308 -35.5546 -35.4336  14.3060  14.5351  16.5719  17.9089
    18.7517  24.8552  26.8056  29.8969

          k = 0.5556-0.5556 0.4444 (   462 PWs)   bands (ev):

   -69.4045 -35.5631 -35.4533 -35.4533  15.2488  15.2488  15.5675  17.6107
    17.6107  24.9014  28.6047  28.6047

          k = 0.0000 0.0000 0.6667 (   450 PWs)   bands (ev):

   -69.3796 -35.5648 -35.5103 -35.5103  14.2094  14.4763  17.5291  17.5291
    18.2260  21.4780  32.3591  32.3591

          k = 0.0000-0.1111 0.7778 (   455 PWs)   bands (ev):

   -69.3651 -35.6134 -35.5450 -35.5164  14.0198  14.1005  17.7003  17.9298
    18.8246  24.4381  28.6486  30.8258

          k =-0.1111 0.8889-0.1111 (   466 PWs)   bands (ev):

   -69.3586 -35.5961 -35.5961 -35.5247  13.8751  13.8751  17.8097  18.6863
    18.6863  27.4511  27.4511  28.4766

          k = 0.0000 0.0000 0.8889 (   462 PWs)   bands (ev):

   -69.3519 -35.5900 -35.5816 -35.5816  13.6544  13.6586  18.6548  18.6548
    18.7959  26.9687  29.0970  29.0970

 ------ SPIN DOWN ----------


          k = 0.0000 0.0000 0.0000 (   429 PWs)   bands (ev):

   -67.0170 -32.8416 -32.8416 -32.8416  10.1490  17.9397  17.9397  17.9397
    20.3455  20.3455  43.3675  43.3675

          k = 0.0000-0.1111 0.1111 (   441 PWs)   bands (ev):

   -67.0068 -32.8994 -32.8612 -32.8422  10.6630  17.7755  17.9048  18.2400
    20.1727  20.3590  40.9571  42.7126

          k = 0.0000-0.2222 0.2222 (   449 PWs)   bands (ev):

   -66.9805 -33.0430 -32.9086 -32.8424  12.0873  17.3761  17.7341  19.0530
    19.9499  20.4130  36.3476  40.6038

          k = 0.0000-0.3333 0.3333 (   446 PWs)   bands (ev):

   -66.9499 -33.2027 -32.9614 -32.8421  13.8296  16.9471  17.7756  19.9825
    20.0956  20.5109  31.5576  38.4671

          k = 0.0000-0.4444 0.4444 (   452 PWs)   bands (ev):

   -66.9301 -33.3062 -32.9962 -32.8424  14.6767  16.6800  18.8520  20.0895
    20.5979  20.8697  27.9145  37.2276

          k =-0.1111-0.1111 0.2222 (   449 PWs)   bands (ev):

   -66.9885 -32.9982 -32.8821 -32.8565  11.6410  17.5739  17.6673  18.8533
    19.9299  20.4359  38.4743  39.6727

          k =-0.1111-0.2222 0.3333 (   451 PWs)   bands (ev):

   -66.9601 -33.1377 -32.9390 -32.8619  13.3101  17.1612  17.4203  19.8180
    19.8945  20.5737  34.0902  37.2338

          k =-0.1111-0.3333 0.4444 (   458 PWs)   bands (ev):

   -66.9351 -33.2557 -32.9953 -32.8634  14.7111  16.8056  17.7379  19.9698
    20.5634  21.2304  29.6154  35.7484

          k =-0.1111 0.5556-0.4444 (   451 PWs)   bands (ev):

   -66.9249 -33.3011 -33.0174 -32.8635  15.0218  16.6771  18.3658  20.0621
    20.6668  22.0592  27.3122  35.1964

          k =-0.2222-0.2222 0.4444 (   453 PWs)   bands (ev):

   -66.9368 -33.2147 -33.0019 -32.8850  14.8578  16.8733  17.1376  19.8404
    20.5139  21.5269  32.0515  32.7502

          k =-0.2222 0.6667-0.4444 (   457 PWs)   bands (ev):

   -66.9216 -33.2459 -33.0692 -32.8931  15.6576  16.7087  17.3311  20.0344
    20.5216  23.4823  28.2674  31.4160

          k =-0.3333 0.6667-0.3333 (   454 PWs)   bands (ev):

   -66.9162 -33.1713 -33.1713 -32.9024  16.1723  16.8422  16.8422  20.2832
    20.2832  26.4876  26.4876  28.9340

          k = 0.0000 0.0000 0.2222 (   450 PWs)   bands (ev):

   -66.9969 -32.9156 -32.8804 -32.8804  11.1659  17.9259  17.9259  18.2445
    19.7428  20.5591  40.1490  42.2327

          k = 0.0000-0.1111 0.3333 (   447 PWs)   bands (ev):

   -66.9710 -33.0408 -32.9279 -32.8882  12.5422  17.6526  17.8280  18.9789
    19.3115  20.7185  36.6823  39.7965

          k = 0.0000-0.2222 0.4444 (   450 PWs)   bands (ev):

   -66.9416 -33.1926 -32.9824 -32.8858  14.2223  17.2673  17.5973  19.4740
    20.0345  20.9476  31.8798  38.0292

          k = 0.0000-0.3333 0.5556 (   450 PWs)   bands (ev):

   -66.9223 -33.2909 -33.0174 -32.8840  15.0526  17.0228  17.9443  19.7061
    20.8296  21.7608  28.0360  37.0485

          k =-0.1111-0.1111 0.4444 (   447 PWs)   bands (ev):

   -66.9443 -33.1400 -32.9847 -32.9153  14.0437  17.4318  17.6835  19.0729
    19.7618  21.0289  34.5249  35.2289

          k =-0.1111-0.2222 0.5556 (   454 PWs)   bands (ev):

   -66.9208 -33.2348 -33.0466 -32.9189  15.3494  17.0392  17.5237  19.4053
    20.4304  22.1657  30.1435  33.4315

          k =-0.1111 0.6667-0.3333 (   450 PWs)   bands (ev):

   -66.9113 -33.2721 -33.0719 -32.9180  15.6660  17.2060  17.3191  19.5648
    20.6841  23.6930  27.4074  32.8447

          k =-0.2222 0.2222 0.2222 (   456 PWs)   bands (ev):

   -66.9675 -33.1162 -32.8872 -32.8872  12.9604  17.1773  17.1773  19.9292
    20.2471  20.2471  36.3611  36.3611

          k =-0.2222 0.7778-0.3333 (   454 PWs)   bands (ev):

   -66.9072 -33.2254 -33.1373 -32.9276  16.3171  16.6454  17.2033  19.7933
    20.3455  24.7791  28.5137  29.6298

          k =-0.3333 0.3333 0.2222 (   454 PWs)   bands (ev):

   -66.9432 -33.2106 -32.9598 -32.8922  14.6427  16.7591  16.9646  20.2200
    20.4887  21.3133  32.0065  34.7243

          k = 0.5556-0.5556 0.2222 (   452 PWs)   bands (ev):

   -66.9271 -33.2567 -33.0223 -32.8954  15.3884  16.5312  17.5676  20.2849
    20.6156  22.8948  28.1218  33.8215

          k = 0.5556-0.6667 0.3333 (   460 PWs)   bands (ev):

   -66.9283 -33.2204 -33.0212 -32.9317  15.8495  16.5693  16.7510  20.3737
    20.5838  23.2564  30.2477  31.0454

          k = 0.4444-0.5556 0.3333 (   457 PWs)   bands (ev):

   -66.9223 -33.1942 -33.0818 -32.9408  16.0240  16.5096  17.0518  20.4515
    20.6027  25.2634  27.4892  30.2533

          k = 0.0000 0.0000 0.4444 (   446 PWs)   bands (ev):

   -66.9472 -33.0599 -32.9782 -32.9782  13.7384  18.1793  18.1793  18.2405
    19.0345  21.0465  37.3267  37.6929

          k = 0.0000-0.1111 0.5556 (   446 PWs)   bands (ev):

   -66.9201 -33.1676 -33.0350 -32.9921  15.1102  17.2500  18.1344  18.8157
    19.9025  21.7017  32.7827  35.4267

          k = 0.0000-0.2222 0.6667 (   446 PWs)   bands (ev):

   -66.9024 -33.2524 -33.0717 -32.9858  15.8115  16.8310  17.9818  19.1294
    20.7289  23.5613  28.4984  34.0198

          k =-0.1111-0.1111 0.6667 (   445 PWs)   bands (ev):

   -66.8989 -33.2107 -33.1064 -33.0117  15.9161  16.5997  18.2192  19.3159
    20.3626  23.4579  30.9996  31.3709

          k =-0.1111 0.7778-0.2222 (   451 PWs)   bands (ev):

   -66.8907 -33.2278 -33.1437 -33.0110  16.1640  16.3873  18.0494  19.6781
    20.5695  25.9004  27.7486  30.5493

          k = 0.5556-0.5556 0.4444 (   462 PWs)   bands (ev):

   -66.9227 -33.1543 -33.0335 -33.0335  16.4601  16.4601  16.5953  20.6291
    20.6291  25.8169  29.2957  29.2957

          k = 0.0000 0.0000 0.6667 (   450 PWs)   bands (ev):

   -66.8958 -33.1563 -33.0947 -33.0947  15.6972  16.6176  19.1034  19.1034
    19.9649  22.9483  32.8504  32.8504

          k = 0.0000-0.1111 0.7778 (   455 PWs)   bands (ev):

   -66.8802 -33.2085 -33.1328 -33.1017  15.8697  16.0684  19.3138  19.5758
    20.6174  25.4057  29.3250  31.2496

          k =-0.1111 0.8889-0.1111 (   466 PWs)   bands (ev):

   -66.8731 -33.1889 -33.1889 -33.1106  15.8109  15.8109  19.4157  20.4519
    20.4519  28.1406  28.1406  28.9742

          k = 0.0000 0.0000 0.8889 (   462 PWs)   bands (ev):

   -66.8657 -33.1822 -33.1729 -33.1729  15.5761  15.6192  20.4043  20.4043
    20.5900  27.5153  29.4108  29.4108

     the Fermi energy is    18.5571 ev

!    total energy              =    -329.26295664 Ry
     Harris-Foulkes estimate   =    -329.26295660 Ry
     estimated scf accuracy    <          3.7E-09 Ry

     total all-electron energy =     -2545.559492 Ry

     The total energy is the sum of the following terms:

     one-electron contribution =    -108.41802733 Ry
     hartree contribution      =      64.92778387 Ry
     xc contribution           =     -34.82990982 Ry
     ewald contribution        =    -174.79245087 Ry
     one-center paw contrib.   =     -76.15163093 Ry
     smearing contrib. (-TS)   =       0.00127846 Ry

     total magnetization       =     2.05 Bohr mag/cell
     absolute magnetization    =     2.16 Bohr mag/cell

     convergence has been achieved in  13 iterations

     Forces acting on atoms (Ry/au):


     negative rho (up, down):  0.000E+00 1.245E-04
     atom    1 type  1   force =     0.00000000    0.00000000    0.00000000

     Total force =     0.000000     Total SCF correction =     0.000000


     entering subroutine stress ...


     negative rho (up, down):  0.000E+00 1.245E-04
          total   stress  (Ry/bohr**3)                   (kbar)     P=  -66.65
  -0.00045306  -0.00000000  -0.00000000        -66.65     -0.00     -0.00
  -0.00000000  -0.00045306   0.00000000         -0.00    -66.65      0.00
  -0.00000000   0.00000000  -0.00045306         -0.00      0.00    -66.65


     Writing output data file Fe_bcc.save

     init_run     :      1.49s CPU      1.53s WALL (       1 calls)
     electrons    :     23.78s CPU     24.03s WALL (       1 calls)
     forces       :      0.12s CPU      0.13s WALL (       1 calls)
     stress       :      0.44s CPU      0.45s WALL (       1 calls)

     Called by init_run:
     wfcinit      :      0.51s CPU      0.51s WALL (       1 calls)
     potinit      :      0.48s CPU      0.50s WALL (       1 calls)

     Called by electrons:
     c_bands      :     14.52s CPU     14.59s WALL (      13 calls)
     sum_band     :      2.77s CPU      2.81s WALL (      13 calls)
     v_of_rho     :      0.29s CPU      0.30s WALL (      14 calls)
     newd         :      0.19s CPU      0.20s WALL (      14 calls)
     mix_rho      :      0.03s CPU      0.04s WALL (      13 calls)

     Called by c_bands:
     init_us_2    :      0.33s CPU      0.33s WALL (    2030 calls)
     cegterg      :     13.89s CPU     13.94s WALL (     910 calls)

     Called by *egterg:
     h_psi        :     11.87s CPU     11.97s WALL (    2940 calls)
     s_psi        :      0.32s CPU      0.27s WALL (    2940 calls)
     g_psi        :      0.07s CPU      0.07s WALL (    1960 calls)
     cdiaghg      :      0.81s CPU      0.82s WALL (    2870 calls)

     Called by h_psi:
     add_vuspsi   :      0.33s CPU      0.29s WALL (    2940 calls)

     General routines
     calbec       :      0.35s CPU      0.36s WALL (    3990 calls)
     fft          :      0.15s CPU      0.15s WALL (     468 calls)
     ffts         :      0.02s CPU      0.02s WALL (      54 calls)
     fftw         :     12.08s CPU     12.19s WALL (   64710 calls)
     interpolate  :      0.04s CPU      0.04s WALL (      54 calls)
     davcio       :      0.00s CPU      0.00s WALL (      70 calls)


     PAW routines
     PAW_pot      :      6.42s CPU      6.56s WALL (      14 calls)
     PAW_symme    :      0.02s CPU      0.02s WALL (      27 calls)

     PWSCF        :    26.31s CPU        26.72s WALL


   This run was terminated on:  14:41:45  12May2015            

=------------------------------------------------------------------------------=
   JOB DONE.
=------------------------------------------------------------------------------=
