
     Program PWSCF v.5.1.2 starts on 12May2015 at 14:40:51 

     This program is part of the open-source Quantum ESPRESSO suite
     for quantum simulation of materials; please cite
         "P. Giannozzi et al., J. Phys.:Condens. Matter 21 395502 (2009);
          URL http://www.quantum-espresso.org", 
     in publications or presentations arising from this work. More details at
     http://www.quantum-espresso.org/quote

     Serial version
     Reading input from Fe_bcc_5.32_9.pw.in

     Current dimensions of program PWSCF are:
     Max number of different atomic species (ntypx) = 10
     Max number of k-points (npk) =  40000
     Max angular momentum in pseudopotentials (lmaxx) =  3
               file Fe.pbe-spn-kjpaw_psl.0.2.1.UPF: wavefunction(s)  3D renormalized

     G-vector sticks info
     --------------------
     sticks:   dense  smooth     PW     G-vecs:    dense   smooth      PW
     Sum         399     315     99                 5017     3559     675

     Generating pointlists ...
     new r_m :   0.3572 (alat units)  1.9005 (a.u.) for type    1


     bravais-lattice index     =            3
     lattice parameter (alat)  =       5.3200  a.u.
     unit-cell volume          =      75.2844 (a.u.)^3
     number of atoms/cell      =            1
     number of atomic types    =            1
     number of electrons       =        16.00
     number of Kohn-Sham states=           12
     kinetic-energy cutoff     =      50.0000  Ry
     charge density cutoff     =     250.0000  Ry
     convergence threshold     =      1.0E-08
     mixing beta               =       0.7000
     number of iterations used =            8  plain     mixing
     Exchange-correlation      =  SLA  PW   PBX  PBC ( 1  4  3  4 0 0)

     celldm(1)=   5.320000  celldm(2)=   0.000000  celldm(3)=   0.000000
     celldm(4)=   0.000000  celldm(5)=   0.000000  celldm(6)=   0.000000

     crystal axes: (cart. coord. in units of alat)
               a(1) = (   0.500000   0.500000   0.500000 )  
               a(2) = (  -0.500000   0.500000   0.500000 )  
               a(3) = (  -0.500000  -0.500000   0.500000 )  

     reciprocal axes: (cart. coord. in units 2 pi/alat)
               b(1) = (  1.000000  0.000000  1.000000 )  
               b(2) = ( -1.000000  1.000000  0.000000 )  
               b(3) = (  0.000000 -1.000000  1.000000 )  


     PseudoPot. # 1 for Fe read from file:
     ./Fe.pbe-spn-kjpaw_psl.0.2.1.UPF
     MD5 check sum: a0a08122d52b112de96d1da1d7dd020f
     Pseudo is Projector augmented-wave + core cor, Zval = 16.0
     Generated using "atomic" code by A. Dal Corso  v.5.0.2 svn rev. 9415
     Shape of augmentation charge: PSQ
     Using radial grid of 1191 points,  6 beta functions with: 
                l(1) =   0
                l(2) =   0
                l(3) =   1
                l(4) =   1
                l(5) =   2
                l(6) =   2
     Q(r) pseudized with 0 coefficients 


     atomic species   valence    mass     pseudopotential
        Fe            16.00    55.85000     Fe( 1.00)

     Starting magnetic structure 
     atomic species   magnetization
        Fe           0.700

     48 Sym. Ops., with inversion, found



   Cartesian axes

     site n.     atom                  positions (alat units)
         1           Fe  tau(   1) = (   0.0000000   0.0000000   0.0000000  )

     number of k points=    70  Marzari-Vanderbilt smearing, width (Ry)=  0.0250
                       cart. coord. in units 2pi/alat
        k(    1) = (   0.0000000   0.0000000   0.0000000), wk =   0.0013717
        k(    2) = (   0.0000000  -0.1111111   0.1111111), wk =   0.0164609
        k(    3) = (   0.0000000  -0.2222222   0.2222222), wk =   0.0164609
        k(    4) = (   0.0000000  -0.3333333   0.3333333), wk =   0.0164609
        k(    5) = (   0.0000000  -0.4444444   0.4444444), wk =   0.0164609
        k(    6) = (  -0.1111111  -0.1111111   0.2222222), wk =   0.0329218
        k(    7) = (  -0.1111111  -0.2222222   0.3333333), wk =   0.0658436
        k(    8) = (  -0.1111111  -0.3333333   0.4444444), wk =   0.0658436
        k(    9) = (  -0.1111111   0.5555556  -0.4444444), wk =   0.0329218
        k(   10) = (  -0.2222222  -0.2222222   0.4444444), wk =   0.0329218
        k(   11) = (  -0.2222222   0.6666667  -0.4444444), wk =   0.0658436
        k(   12) = (  -0.3333333   0.6666667  -0.3333333), wk =   0.0109739
        k(   13) = (   0.0000000   0.0000000   0.2222222), wk =   0.0082305
        k(   14) = (   0.0000000  -0.1111111   0.3333333), wk =   0.0329218
        k(   15) = (   0.0000000  -0.2222222   0.4444444), wk =   0.0329218
        k(   16) = (   0.0000000  -0.3333333   0.5555556), wk =   0.0329218
        k(   17) = (  -0.1111111  -0.1111111   0.4444444), wk =   0.0329218
        k(   18) = (  -0.1111111  -0.2222222   0.5555556), wk =   0.0658436
        k(   19) = (  -0.1111111   0.6666667  -0.3333333), wk =   0.0329218
        k(   20) = (  -0.2222222   0.2222222   0.2222222), wk =   0.0109739
        k(   21) = (  -0.2222222   0.7777778  -0.3333333), wk =   0.0329218
        k(   22) = (  -0.3333333   0.3333333   0.2222222), wk =   0.0329218
        k(   23) = (   0.5555556  -0.5555556   0.2222222), wk =   0.0329218
        k(   24) = (   0.5555556  -0.6666667   0.3333333), wk =   0.0329218
        k(   25) = (   0.4444444  -0.5555556   0.3333333), wk =   0.0329218
        k(   26) = (   0.0000000   0.0000000   0.4444444), wk =   0.0082305
        k(   27) = (   0.0000000  -0.1111111   0.5555556), wk =   0.0329218
        k(   28) = (   0.0000000  -0.2222222   0.6666667), wk =   0.0329218
        k(   29) = (  -0.1111111  -0.1111111   0.6666667), wk =   0.0329218
        k(   30) = (  -0.1111111   0.7777778  -0.2222222), wk =   0.0329218
        k(   31) = (   0.5555556  -0.5555556   0.4444444), wk =   0.0109739
        k(   32) = (   0.0000000   0.0000000   0.6666667), wk =   0.0082305
        k(   33) = (   0.0000000  -0.1111111   0.7777778), wk =   0.0329218
        k(   34) = (  -0.1111111   0.8888889  -0.1111111), wk =   0.0109739
        k(   35) = (   0.0000000   0.0000000   0.8888889), wk =   0.0082305
        k(   36) = (   0.0000000   0.0000000   0.0000000), wk =   0.0013717
        k(   37) = (   0.0000000  -0.1111111   0.1111111), wk =   0.0164609
        k(   38) = (   0.0000000  -0.2222222   0.2222222), wk =   0.0164609
        k(   39) = (   0.0000000  -0.3333333   0.3333333), wk =   0.0164609
        k(   40) = (   0.0000000  -0.4444444   0.4444444), wk =   0.0164609
        k(   41) = (  -0.1111111  -0.1111111   0.2222222), wk =   0.0329218
        k(   42) = (  -0.1111111  -0.2222222   0.3333333), wk =   0.0658436
        k(   43) = (  -0.1111111  -0.3333333   0.4444444), wk =   0.0658436
        k(   44) = (  -0.1111111   0.5555556  -0.4444444), wk =   0.0329218
        k(   45) = (  -0.2222222  -0.2222222   0.4444444), wk =   0.0329218
        k(   46) = (  -0.2222222   0.6666667  -0.4444444), wk =   0.0658436
        k(   47) = (  -0.3333333   0.6666667  -0.3333333), wk =   0.0109739
        k(   48) = (   0.0000000   0.0000000   0.2222222), wk =   0.0082305
        k(   49) = (   0.0000000  -0.1111111   0.3333333), wk =   0.0329218
        k(   50) = (   0.0000000  -0.2222222   0.4444444), wk =   0.0329218
        k(   51) = (   0.0000000  -0.3333333   0.5555556), wk =   0.0329218
        k(   52) = (  -0.1111111  -0.1111111   0.4444444), wk =   0.0329218
        k(   53) = (  -0.1111111  -0.2222222   0.5555556), wk =   0.0658436
        k(   54) = (  -0.1111111   0.6666667  -0.3333333), wk =   0.0329218
        k(   55) = (  -0.2222222   0.2222222   0.2222222), wk =   0.0109739
        k(   56) = (  -0.2222222   0.7777778  -0.3333333), wk =   0.0329218
        k(   57) = (  -0.3333333   0.3333333   0.2222222), wk =   0.0329218
        k(   58) = (   0.5555556  -0.5555556   0.2222222), wk =   0.0329218
        k(   59) = (   0.5555556  -0.6666667   0.3333333), wk =   0.0329218
        k(   60) = (   0.4444444  -0.5555556   0.3333333), wk =   0.0329218
        k(   61) = (   0.0000000   0.0000000   0.4444444), wk =   0.0082305
        k(   62) = (   0.0000000  -0.1111111   0.5555556), wk =   0.0329218
        k(   63) = (   0.0000000  -0.2222222   0.6666667), wk =   0.0329218
        k(   64) = (  -0.1111111  -0.1111111   0.6666667), wk =   0.0329218
        k(   65) = (  -0.1111111   0.7777778  -0.2222222), wk =   0.0329218
        k(   66) = (   0.5555556  -0.5555556   0.4444444), wk =   0.0109739
        k(   67) = (   0.0000000   0.0000000   0.6666667), wk =   0.0082305
        k(   68) = (   0.0000000  -0.1111111   0.7777778), wk =   0.0329218
        k(   69) = (  -0.1111111   0.8888889  -0.1111111), wk =   0.0109739
        k(   70) = (   0.0000000   0.0000000   0.8888889), wk =   0.0082305

     Dense  grid:     5017 G-vectors     FFT dimensions: (  24,  24,  24)

     Smooth grid:     3559 G-vectors     FFT dimensions: (  24,  24,  24)

     Largest allocated arrays     est. size (Mb)     dimensions
        Kohn-Sham Wavefunctions         0.08 Mb     (     462,   12)
        NL pseudopotentials             0.13 Mb     (     462,   18)
        Each V/rho on FFT grid          0.42 Mb     (   13824,   2)
        Each G-vector array             0.04 Mb     (    5017)
        G-vector shells                 0.00 Mb     (      84)
     Largest temporary arrays     est. size (Mb)     dimensions
        Auxiliary wavefunctions         0.34 Mb     (     462,   48)
        Each subspace H/S matrix        0.04 Mb     (      48,   48)
        Each <psi_i|beta_j> matrix      0.00 Mb     (      18,   12)
        Arrays for rho mixing           1.69 Mb     (   13824,    8)

     Check: negative/imaginary core charge=   -0.000422    0.000000

     Initial potential from superposition of free atoms

     starting charge   15.99956, renormalised to   16.00000
     Starting wfc are   13 randomized atomic wfcs

     total cpu time spent up to now is        2.0 secs

     Self-consistent Calculation

     iteration #  1     ecut=    50.00 Ry     beta=0.70
     Davidson diagonalization with overlap
     ethr =  1.00E-02,  avg # of iterations =  3.4

     negative rho (up, down):  0.000E+00 3.047E-04

     Magnetic moment per site:
     atom:    1    charge:   14.2611    magn:    5.6369    constr:    0.0000

     total cpu time spent up to now is        4.1 secs

     total energy              =    -328.98830931 Ry
     Harris-Foulkes estimate   =    -328.03954752 Ry
     estimated scf accuracy    <       1.53517539 Ry

     total magnetization       =     3.77 Bohr mag/cell
     absolute magnetization    =     3.81 Bohr mag/cell

     iteration #  2     ecut=    50.00 Ry     beta=0.70
     Davidson diagonalization with overlap
     ethr =  9.59E-03,  avg # of iterations =  1.2

     negative rho (up, down):  0.000E+00 3.263E-04

     Magnetic moment per site:
     atom:    1    charge:   14.4805    magn:    3.3508    constr:    0.0000

     total cpu time spent up to now is        5.9 secs

     total energy              =    -329.17134463 Ry
     Harris-Foulkes estimate   =    -329.09453892 Ry
     estimated scf accuracy    <       0.33072287 Ry

     total magnetization       =     3.00 Bohr mag/cell
     absolute magnetization    =     3.14 Bohr mag/cell

     iteration #  3     ecut=    50.00 Ry     beta=0.70
     Davidson diagonalization with overlap
     ethr =  2.07E-03,  avg # of iterations =  2.0

     negative rho (up, down):  0.000E+00 3.223E-04

     Magnetic moment per site:
     atom:    1    charge:   14.3646    magn:    2.4116    constr:    0.0000

     total cpu time spent up to now is        7.9 secs

     total energy              =    -329.18827980 Ry
     Harris-Foulkes estimate   =    -329.33862767 Ry
     estimated scf accuracy    <       0.43604880 Ry

     total magnetization       =     2.39 Bohr mag/cell
     absolute magnetization    =     2.53 Bohr mag/cell

     iteration #  4     ecut=    50.00 Ry     beta=0.70
     Davidson diagonalization with overlap
     ethr =  2.07E-03,  avg # of iterations =  2.0

     negative rho (up, down):  0.000E+00 1.622E-04

     Magnetic moment per site:
     atom:    1    charge:   14.3929    magn:    2.1488    constr:    0.0000

     total cpu time spent up to now is        9.7 secs

     total energy              =    -329.25847108 Ry
     Harris-Foulkes estimate   =    -329.25745178 Ry
     estimated scf accuracy    <       0.00249114 Ry

     total magnetization       =     2.22 Bohr mag/cell
     absolute magnetization    =     2.38 Bohr mag/cell

     iteration #  5     ecut=    50.00 Ry     beta=0.70
     Davidson diagonalization with overlap
     ethr =  1.56E-05,  avg # of iterations =  3.3

     negative rho (up, down):  0.000E+00 1.492E-04

     Magnetic moment per site:
     atom:    1    charge:   14.3796    magn:    2.1368    constr:    0.0000

     total cpu time spent up to now is       11.9 secs

     total energy              =    -329.26238315 Ry
     Harris-Foulkes estimate   =    -329.26214189 Ry
     estimated scf accuracy    <       0.00048212 Ry

     total magnetization       =     2.08 Bohr mag/cell
     absolute magnetization    =     2.21 Bohr mag/cell

     iteration #  6     ecut=    50.00 Ry     beta=0.70
     Davidson diagonalization with overlap
     ethr =  3.01E-06,  avg # of iterations =  2.4

     negative rho (up, down):  0.000E+00 1.021E-04

     Magnetic moment per site:
     atom:    1    charge:   14.3779    magn:    2.0599    constr:    0.0000

     total cpu time spent up to now is       13.9 secs

     total energy              =    -329.26249421 Ry
     Harris-Foulkes estimate   =    -329.26261286 Ry
     estimated scf accuracy    <       0.00043708 Ry

     total magnetization       =     2.06 Bohr mag/cell
     absolute magnetization    =     2.18 Bohr mag/cell

     iteration #  7     ecut=    50.00 Ry     beta=0.70
     Davidson diagonalization with overlap
     ethr =  2.73E-06,  avg # of iterations =  1.5

     negative rho (up, down):  0.000E+00 1.298E-04

     Magnetic moment per site:
     atom:    1    charge:   14.3815    magn:    2.1144    constr:    0.0000

     total cpu time spent up to now is       15.6 secs

     total energy              =    -329.26273821 Ry
     Harris-Foulkes estimate   =    -329.26269623 Ry
     estimated scf accuracy    <       0.00004889 Ry

     total magnetization       =     2.05 Bohr mag/cell
     absolute magnetization    =     2.15 Bohr mag/cell

     iteration #  8     ecut=    50.00 Ry     beta=0.70
     Davidson diagonalization with overlap
     ethr =  3.06E-07,  avg # of iterations =  2.4

     negative rho (up, down):  0.000E+00 1.266E-04

     Magnetic moment per site:
     atom:    1    charge:   14.3820    magn:    2.1020    constr:    0.0000

     total cpu time spent up to now is       17.6 secs

     total energy              =    -329.26277640 Ry
     Harris-Foulkes estimate   =    -329.26276346 Ry
     estimated scf accuracy    <       0.00002246 Ry

     total magnetization       =     2.06 Bohr mag/cell
     absolute magnetization    =     2.16 Bohr mag/cell

     iteration #  9     ecut=    50.00 Ry     beta=0.70
     Davidson diagonalization with overlap
     ethr =  1.40E-07,  avg # of iterations =  1.4

     negative rho (up, down):  0.000E+00 1.225E-04

     Magnetic moment per site:
     atom:    1    charge:   14.3811    magn:    2.0907    constr:    0.0000

     total cpu time spent up to now is       19.2 secs

     total energy              =    -329.26278338 Ry
     Harris-Foulkes estimate   =    -329.26278115 Ry
     estimated scf accuracy    <       0.00000643 Ry

     total magnetization       =     2.05 Bohr mag/cell
     absolute magnetization    =     2.16 Bohr mag/cell

     iteration # 10     ecut=    50.00 Ry     beta=0.70
     Davidson diagonalization with overlap
     ethr =  4.02E-08,  avg # of iterations =  1.4

     negative rho (up, down):  0.000E+00 1.221E-04

     Magnetic moment per site:
     atom:    1    charge:   14.3810    magn:    2.0897    constr:    0.0000

     total cpu time spent up to now is       20.9 secs

     total energy              =    -329.26278507 Ry
     Harris-Foulkes estimate   =    -329.26278471 Ry
     estimated scf accuracy    <       0.00000025 Ry

     total magnetization       =     2.05 Bohr mag/cell
     absolute magnetization    =     2.15 Bohr mag/cell

     iteration # 11     ecut=    50.00 Ry     beta=0.70
     Davidson diagonalization with overlap
     ethr =  1.55E-09,  avg # of iterations =  2.5

     negative rho (up, down):  0.000E+00 1.219E-04

     Magnetic moment per site:
     atom:    1    charge:   14.3810    magn:    2.0894    constr:    0.0000

     total cpu time spent up to now is       22.7 secs

     total energy              =    -329.26278524 Ry
     Harris-Foulkes estimate   =    -329.26278517 Ry
     estimated scf accuracy    <       0.00000009 Ry

     total magnetization       =     2.05 Bohr mag/cell
     absolute magnetization    =     2.15 Bohr mag/cell

     iteration # 12     ecut=    50.00 Ry     beta=0.70
     Davidson diagonalization with overlap
     ethr =  5.87E-10,  avg # of iterations =  1.0

     negative rho (up, down):  0.000E+00 1.212E-04

     Magnetic moment per site:
     atom:    1    charge:   14.3809    magn:    2.0882    constr:    0.0000

     total cpu time spent up to now is       24.3 secs

     total energy              =    -329.26278526 Ry
     Harris-Foulkes estimate   =    -329.26278525 Ry
     estimated scf accuracy    <       0.00000005 Ry

     total magnetization       =     2.05 Bohr mag/cell
     absolute magnetization    =     2.15 Bohr mag/cell

     iteration # 13     ecut=    50.00 Ry     beta=0.70
     Davidson diagonalization with overlap
     ethr =  3.33E-10,  avg # of iterations =  2.0

     negative rho (up, down):  0.000E+00 1.214E-04

     Magnetic moment per site:
     atom:    1    charge:   14.3809    magn:    2.0882    constr:    0.0000

     total cpu time spent up to now is       26.0 secs

     End of self-consistent calculation

 ------ SPIN UP ------------


          k = 0.0000 0.0000 0.0000 (   429 PWs)   bands (ev):

   -69.3684 -35.1514 -35.1514 -35.1514  10.0693  16.4796  16.4796  16.4796
    17.5146  17.5146  43.7731  43.7731

          k = 0.0000-0.1111 0.1111 (   441 PWs)   bands (ev):

   -69.3591 -35.2048 -35.1696 -35.1519  10.5819  16.3370  16.4511  16.7620
    17.3996  17.5270  40.9832  42.9458

          k = 0.0000-0.2222 0.2222 (   441 PWs)   bands (ev):

   -69.3338 -35.3370 -35.2132 -35.1514  11.9662  15.9878  16.2714  17.3801
    17.5226  17.5706  36.0086  40.6735

          k = 0.0000-0.3333 0.3333 (   446 PWs)   bands (ev):

   -69.3051 -35.4853 -35.2632 -35.1517  13.3524  15.6094  16.6792  17.6174
    17.6425  18.4865  30.9342  38.5401

          k = 0.0000-0.4444 0.4444 (   448 PWs)   bands (ev):

   -69.2864 -35.5809 -35.2955 -35.1518  13.6555  15.3721  17.6172  17.7031
    18.7353  19.1918  26.9556  37.3424

          k =-0.1111-0.1111 0.2222 (   444 PWs)   bands (ev):

   -69.3415 -35.2958 -35.1889 -35.1647  11.5478  16.1647  16.2028  17.2752
    17.3505  17.6075  38.2848  39.5574

          k =-0.1111-0.2222 0.3333 (   449 PWs)   bands (ev):

   -69.3147 -35.4251 -35.2420 -35.1699  13.0776  15.7755  16.0304  17.3643
    17.7236  18.3884  33.6256  37.0255

          k =-0.1111-0.3333 0.4444 (   449 PWs)   bands (ev):

   -69.2908 -35.5341 -35.2941 -35.1707  13.8864  15.4885  16.6651  17.6110
    17.9875  19.7538  28.8793  35.5491

          k =-0.1111 0.5556-0.4444 (   450 PWs)   bands (ev):

   -69.2815 -35.5765 -35.3151 -35.1716  13.9109  15.3846  17.1218  17.6367
    18.4271  20.9768  26.2889  35.0013

          k =-0.2222-0.2222 0.4444 (   448 PWs)   bands (ev):

   -69.2926 -35.4962 -35.3001 -35.1912  14.2757  15.4039  15.9814  17.4668
    17.9090  20.0245  31.4734  32.3556

          k =-0.2222 0.6667-0.4444 (   457 PWs)   bands (ev):

   -69.2785 -35.5256 -35.3626 -35.1993  14.5613  15.3839  16.1342  17.6686
    18.1171  22.3879  27.4721  30.9582

          k =-0.3333 0.6667-0.3333 (   454 PWs)   bands (ev):

   -69.2734 -35.4568 -35.4568 -35.2081  15.0203  15.5213  15.5213  17.9387
    17.9387  25.6545  25.6545  28.3233

          k = 0.0000 0.0000 0.2222 (   450 PWs)   bands (ev):

   -69.3498 -35.2194 -35.1876 -35.1876  11.0784  16.4921  16.4921  16.7634
    17.0561  17.6942  40.1061  42.2484

          k = 0.0000-0.1111 0.3333 (   447 PWs)   bands (ev):

   -69.3252 -35.3353 -35.2320 -35.1946  12.3932  16.2332  16.2548  16.9800
    17.4545  17.8808  36.3132  39.6729

          k = 0.0000-0.2222 0.4444 (   450 PWs)   bands (ev):

   -69.2974 -35.4761 -35.2827 -35.1923  13.6868  15.9145  16.0107  17.3953
    18.4315  18.4448  31.2655  37.8888

          k = 0.0000-0.3333 0.5556 (   446 PWs)   bands (ev):

   -69.2789 -35.5668 -35.3151 -35.1904  13.9368  15.6974  16.3942  17.4692
    19.1551  20.2672  27.1167  36.9597

          k =-0.1111-0.1111 0.4444 (   447 PWs)   bands (ev):

   -69.2997 -35.4273 -35.2846 -35.2199  13.6635  15.6630  16.3439  17.0628
    18.0036  18.6213  33.9819  34.8940

          k =-0.1111-0.2222 0.5556 (   447 PWs)   bands (ev):

   -69.2774 -35.5150 -35.3416 -35.2228  14.3659  15.4152  16.1439  17.4170
    18.5192  20.5966  29.4503  33.0062

          k =-0.1111 0.6667-0.3333 (   450 PWs)   bands (ev):

   -69.2688 -35.5501 -35.3655 -35.2225  14.3411  15.7270  15.8500  17.5024
    18.8758  22.6038  26.4554  32.4177

          k =-0.2222 0.2222 0.2222 (   450 PWs)   bands (ev):

   -69.3216 -35.4052 -35.1932 -35.1932  12.8256  15.7808  15.7808  17.5248
    17.5248  18.4240  36.1036  36.1036

          k =-0.2222 0.7778-0.3333 (   448 PWs)   bands (ev):

   -69.2646 -35.5067 -35.4255 -35.2310  14.9910  15.0021  15.7954  17.8919
    18.4408  23.7137  27.7012  29.0929

          k =-0.3333 0.3333 0.2222 (   454 PWs)   bands (ev):

   -69.2987 -35.4929 -35.2612 -35.1982  14.1950  15.4569  15.7621  17.6040
    17.6644  19.9189  31.4910  34.4630

          k = 0.5556-0.5556 0.2222 (   452 PWs)   bands (ev):

   -69.2837 -35.5355 -35.3193 -35.2011  14.3535  15.2881  16.7510  17.7088
    17.7211  21.8796  27.3117  33.5850

          k = 0.5556-0.6667 0.3333 (   452 PWs)   bands (ev):

   -69.2845 -35.5016 -35.3175 -35.2343  14.9416  15.3245  15.8003  17.6936
    17.7588  22.1635  29.6972  30.5931

          k = 0.4444-0.5556 0.3333 (   457 PWs)   bands (ev):

   -69.2791 -35.4777 -35.3740 -35.2434  14.9251  15.3432  16.0699  17.7579
    17.7878  24.5063  26.7163  29.7745

          k = 0.0000 0.0000 0.4444 (   446 PWs)   bands (ev):

   -69.3026 -35.3525 -35.2787 -35.2787  13.4206  15.8889  16.7760  16.7760
    17.4968  18.4074  36.8203  37.3803

          k = 0.0000-0.1111 0.5556 (   441 PWs)   bands (ev):

   -69.2768 -35.4524 -35.3314 -35.2908  14.2738  15.2282  16.7379  17.1915
    18.3098  19.7274  32.2387  35.0988

          k = 0.0000-0.2222 0.6667 (   446 PWs)   bands (ev):

   -69.2602 -35.5321 -35.3657 -35.2852  14.3441  15.0952  16.5997  17.3498
    19.0627  22.3657  27.7108  33.7204

          k =-0.1111-0.1111 0.6667 (   445 PWs)   bands (ev):

   -69.2569 -35.4935 -35.3975 -35.3095  14.5266  14.6784  16.7927  17.7346
    18.6823  22.2054  30.3445  30.9533

          k =-0.1111 0.7778-0.2222 (   451 PWs)   bands (ev):

   -69.2492 -35.5097 -35.4321 -35.3089  14.4100  14.6415  16.6884  18.0372
    18.8868  25.0146  26.9787  30.0768

          k = 0.5556-0.5556 0.4444 (   456 PWs)   bands (ev):

   -69.2794 -35.4404 -35.3287 -35.3287  15.3559  15.3559  15.6805  17.7466
    17.7466  25.0727  28.7802  28.7802

          k = 0.0000 0.0000 0.6667 (   450 PWs)   bands (ev):

   -69.2542 -35.4427 -35.3869 -35.3869  14.3140  14.5818  17.6532  17.6532
    18.3562  21.6292  32.5435  32.5435

          k = 0.0000-0.1111 0.7778 (   455 PWs)   bands (ev):

   -69.2394 -35.4920 -35.4223 -35.3932  14.1217  14.2033  17.8258  18.0575
    18.9600  24.5976  28.8231  31.0024

          k =-0.1111 0.8889-0.1111 (   460 PWs)   bands (ev):

   -69.2325 -35.4738 -35.4738 -35.4014  13.9761  13.9761  17.9365  18.8207
    18.8207  27.6311  27.6311  28.6596

          k = 0.0000 0.0000 0.8889 (   462 PWs)   bands (ev):

   -69.2258 -35.4681 -35.4595 -35.4595  13.7531  13.7575  18.7887  18.7887
    18.9311  27.1331  29.2659  29.2659

 ------ SPIN DOWN ----------


          k = 0.0000 0.0000 0.0000 (   429 PWs)   bands (ev):

   -66.8972 -32.7171 -32.7171 -32.7171  10.2454  18.0573  18.0573  18.0573
    20.4682  20.4682  43.5542  43.5542

          k = 0.0000-0.1111 0.1111 (   441 PWs)   bands (ev):

   -66.8868 -32.7760 -32.7370 -32.7176  10.7617  17.8917  18.0219  18.3599
    20.2941  20.4819  41.1487  42.9015

          k = 0.0000-0.2222 0.2222 (   441 PWs)   bands (ev):

   -66.8596 -32.9217 -32.7846 -32.7173  12.1909  17.4889  17.8493  19.1795
    20.0710  20.5363  36.5483  40.7959

          k = 0.0000-0.3333 0.3333 (   446 PWs)   bands (ev):

   -66.8286 -33.0850 -32.8390 -32.7176  13.9342  17.0565  17.8920  20.1060
    20.2303  20.6351  31.7448  38.6477

          k = 0.0000-0.4444 0.4444 (   448 PWs)   bands (ev):

   -66.8082 -33.1902 -32.8741 -32.7177  14.7753  16.7874  18.9836  20.2148
    20.7230  21.0108  28.0965  37.4060

          k =-0.1111-0.1111 0.2222 (   444 PWs)   bands (ev):

   -66.8679 -32.8762 -32.7580 -32.7317  11.7458  17.6883  17.7820  18.9783
    20.0499  20.5596  38.6669  39.8742

          k =-0.1111-0.2222 0.3333 (   449 PWs)   bands (ev):

   -66.8389 -33.0186 -32.8160 -32.7375  13.4166  17.2721  17.5326  19.9398
    20.0267  20.6990  34.2813  37.4291

          k =-0.1111-0.3333 0.4444 (   449 PWs)   bands (ev):

   -66.8131 -33.1385 -32.8729 -32.7385  14.8166  16.9140  17.8601  20.0937
    20.6922  21.3725  29.8025  35.9450

          k =-0.1111 0.5556-0.4444 (   450 PWs)   bands (ev):

   -66.8029 -33.1852 -32.8958 -32.7393  15.1202  16.7846  18.4866  20.1869
    20.7964  22.2037  27.4929  35.3849

          k =-0.2222-0.2222 0.4444 (   448 PWs)   bands (ev):

   -66.8149 -33.0968 -32.8801 -32.7608  14.9669  16.9806  17.2505  19.9628
    20.6428  21.6698  32.2362  32.9496

          k =-0.2222 0.6667-0.4444 (   457 PWs)   bands (ev):

   -66.7996 -33.1289 -32.9488 -32.7694  15.7609  16.8157  17.4445  20.1591
    20.6505  23.6355  28.4455  31.6014

          k =-0.3333 0.6667-0.3333 (   454 PWs)   bands (ev):

   -66.7940 -33.0529 -33.0529 -32.7789  16.2777  16.9504  16.9504  20.4104
    20.4104  26.6519  26.6519  29.1221

          k = 0.0000 0.0000 0.2222 (   450 PWs)   bands (ev):

   -66.8767 -32.7924 -32.7565 -32.7565  11.2666  18.0433  18.0433  18.3643
    19.8606  20.6837  40.3345  42.4360

          k = 0.0000-0.1111 0.3333 (   447 PWs)   bands (ev):

   -66.8501 -32.9200 -32.8049 -32.7645  12.6472  17.7676  17.9432  19.1045
    19.4275  20.8449  36.8747  39.9908

          k = 0.0000-0.2222 0.4444 (   450 PWs)   bands (ev):

   -66.8201 -33.0746 -32.8603 -32.7620  14.3281  17.3792  17.7088  19.5952
    20.1687  21.0770  32.0674  38.2155

          k = 0.0000-0.3333 0.5556 (   446 PWs)   bands (ev):

   -66.8001 -33.1745 -32.8957 -32.7599  15.1524  17.1329  18.0623  19.8292
    20.9704  21.9006  28.2193  37.2324

          k =-0.1111-0.1111 0.4444 (   447 PWs)   bands (ev):

   -66.8228 -33.0210 -32.8627 -32.7921  14.1511  17.5408  17.7989  19.1907
    19.8932  21.1595  34.7125  35.4268

          k =-0.1111-0.2222 0.5556 (   447 PWs)   bands (ev):

   -66.7986 -33.1172 -32.9253 -32.7952  15.4567  17.1472  17.6383  19.5280
    20.5648  22.3124  30.3337  33.6267

          k =-0.1111 0.6667-0.3333 (   450 PWs)   bands (ev):

   -66.7891 -33.1555 -32.9515 -32.7948  15.7660  17.3170  17.4276  19.6881
    20.8211  23.8426  27.5861  33.0321

          k =-0.2222 0.2222 0.2222 (   450 PWs)   bands (ev):

   -66.8464 -32.9965 -32.7629 -32.7629  13.0706  17.2882  17.2882  20.0632
    20.3700  20.3700  36.5565  36.5565

          k =-0.2222 0.7778-0.3333 (   448 PWs)   bands (ev):

   -66.7846 -33.1076 -33.0178 -32.8041  16.4244  16.7490  17.3142  19.9207
    20.4784  24.9437  28.6928  29.8175

          k =-0.3333 0.3333 0.2222 (   454 PWs)   bands (ev):

   -66.8216 -33.0929 -32.8374 -32.7685  14.7514  16.8670  17.0745  20.3440
    20.6133  21.4571  32.1918  34.9085

          k = 0.5556-0.5556 0.2222 (   452 PWs)   bands (ev):

   -66.8052 -33.1400 -32.9010 -32.7719  15.4906  16.6378  17.6851  20.4102
    20.7409  23.0464  28.3017  34.0024

          k = 0.5556-0.6667 0.3333 (   452 PWs)   bands (ev):

   -66.8062 -33.1026 -32.8995 -32.8083  15.9598  16.6773  16.8637  20.4986
    20.7095  23.4145  30.4314  31.2379

          k = 0.4444-0.5556 0.3333 (   457 PWs)   bands (ev):

   -66.8002 -33.0762 -32.9617 -32.8182  16.1288  16.6167  17.1648  20.5771
    20.7286  25.4238  27.6644  30.4373

          k = 0.0000 0.0000 0.4444 (   446 PWs)   bands (ev):

   -66.8258 -32.9395 -32.8561 -32.8561  13.8458  18.2985  18.2985  18.3468
    19.1604  21.1770  37.5116  37.8974

          k = 0.0000-0.1111 0.5556 (   441 PWs)   bands (ev):

   -66.7979 -33.0486 -32.9138 -32.8698  15.2177  17.3528  18.2532  18.9378
    20.0355  21.8408  32.9852  35.6246

          k = 0.0000-0.2222 0.6667 (   446 PWs)   bands (ev):

   -66.7799 -33.1354 -32.9513 -32.8639  15.9108  16.9331  18.0993  19.2516
    20.8687  23.7109  28.6776  34.2112

          k =-0.1111-0.1111 0.6667 (   445 PWs)   bands (ev):

   -66.7763 -33.0929 -32.9866 -32.8903  16.0173  16.6973  18.3380  19.4424
    20.4985  23.6086  31.1801  31.5580

          k =-0.1111 0.7778-0.2222 (   451 PWs)   bands (ev):

   -66.7680 -33.1103 -33.0245 -32.8895  16.2607  16.4858  18.1676  19.8073
    20.7072  26.0602  27.9237  30.7313

          k = 0.5556-0.5556 0.4444 (   456 PWs)   bands (ev):

   -66.8004 -33.0351 -32.9122 -32.9122  16.5685  16.5685  16.7103  20.7547
    20.7547  25.9903  29.4745  29.4745

          k = 0.0000 0.0000 0.6667 (   450 PWs)   bands (ev):

   -66.7732 -33.0376 -32.9746 -32.9746  15.7968  16.7131  19.2298  19.2298
    20.0983  23.0958  33.0384  33.0384

          k = 0.0000-0.1111 0.7778 (   455 PWs)   bands (ev):

   -66.7572 -33.0905 -33.0134 -32.9817  15.9643  16.1615  19.4418  19.7056
    20.7563  25.5649  29.5017  31.4295

          k =-0.1111 0.8889-0.1111 (   460 PWs)   bands (ev):

   -66.7497 -33.0701 -33.0701 -32.9905  15.9031  15.9031  19.5452  20.5895
    20.5895  28.3211  28.3211  29.1590

          k = 0.0000 0.0000 0.8889 (   462 PWs)   bands (ev):

   -66.7424 -33.0637 -33.0542 -33.0542  15.6661  15.7087  20.5413  20.5413
    20.7286  27.6808  29.5825  29.5825

     the Fermi energy is    18.6895 ev

!    total energy              =    -329.26278531 Ry
     Harris-Foulkes estimate   =    -329.26278529 Ry
     estimated scf accuracy    <          2.1E-09 Ry

     total all-electron energy =     -2545.559321 Ry

     The total energy is the sum of the following terms:

     one-electron contribution =    -107.89718063 Ry
     hartree contribution      =      64.73979688 Ry
     xc contribution           =     -34.83386185 Ry
     ewald contribution        =    -175.12100811 Ry
     one-center paw contrib.   =     -76.15178523 Ry
     smearing contrib. (-TS)   =       0.00125362 Ry

     total magnetization       =     2.05 Bohr mag/cell
     absolute magnetization    =     2.15 Bohr mag/cell

     convergence has been achieved in  13 iterations

     Forces acting on atoms (Ry/au):


     negative rho (up, down):  0.000E+00 1.214E-04
     atom    1 type  1   force =     0.00000000    0.00000000    0.00000000

     Total force =     0.000000     Total SCF correction =     0.000000


     entering subroutine stress ...


     negative rho (up, down):  0.000E+00 1.214E-04
          total   stress  (Ry/bohr**3)                   (kbar)     P=  -56.54
  -0.00038438  -0.00000000   0.00000000        -56.54     -0.00      0.00
  -0.00000000  -0.00038438  -0.00000000         -0.00    -56.54     -0.00
   0.00000000  -0.00000000  -0.00038438          0.00     -0.00    -56.54


     Writing output data file Fe_bcc.save

     init_run     :      1.53s CPU      1.59s WALL (       1 calls)
     electrons    :     23.64s CPU     23.97s WALL (       1 calls)
     forces       :      0.13s CPU      0.14s WALL (       1 calls)
     stress       :      0.44s CPU      0.44s WALL (       1 calls)

     Called by init_run:
     wfcinit      :      0.51s CPU      0.53s WALL (       1 calls)
     potinit      :      0.49s CPU      0.51s WALL (       1 calls)

     Called by electrons:
     c_bands      :     14.38s CPU     14.52s WALL (      13 calls)
     sum_band     :      2.63s CPU      2.66s WALL (      13 calls)
     v_of_rho     :      0.29s CPU      0.30s WALL (      14 calls)
     newd         :      0.19s CPU      0.20s WALL (      14 calls)
     mix_rho      :      0.03s CPU      0.04s WALL (      13 calls)

     Called by c_bands:
     init_us_2    :      0.32s CPU      0.33s WALL (    2030 calls)
     cegterg      :     13.75s CPU     13.87s WALL (     910 calls)

     Called by *egterg:
     h_psi        :     11.81s CPU     11.98s WALL (    2832 calls)
     s_psi        :      0.32s CPU      0.27s WALL (    2832 calls)
     g_psi        :      0.07s CPU      0.07s WALL (    1852 calls)
     cdiaghg      :      0.77s CPU      0.78s WALL (    2762 calls)

     Called by h_psi:
     add_vuspsi   :      0.32s CPU      0.29s WALL (    2832 calls)

     General routines
     calbec       :      0.34s CPU      0.35s WALL (    3882 calls)
     fft          :      0.16s CPU      0.16s WALL (     468 calls)
     ffts         :      0.02s CPU      0.02s WALL (      54 calls)
     fftw         :     11.96s CPU     12.12s WALL (   63466 calls)
     interpolate  :      0.04s CPU      0.04s WALL (      54 calls)
     davcio       :      0.00s CPU      0.00s WALL (      70 calls)


     PAW routines
     PAW_pot      :      6.57s CPU      6.72s WALL (      14 calls)
     PAW_symme    :      0.02s CPU      0.02s WALL (      27 calls)

     PWSCF        :    26.25s CPU        26.74s WALL


   This run was terminated on:  14:41:18  12May2015            

=------------------------------------------------------------------------------=
   JOB DONE.
=------------------------------------------------------------------------------=
