
     Program PWSCF v.5.1.2 starts on 12May2015 at 14:45:13 

     This program is part of the open-source Quantum ESPRESSO suite
     for quantum simulation of materials; please cite
         "P. Giannozzi et al., J. Phys.:Condens. Matter 21 395502 (2009);
          URL http://www.quantum-espresso.org", 
     in publications or presentations arising from this work. More details at
     http://www.quantum-espresso.org/quote

     Serial version
     Reading input from Fe_bcc_5.45_9.pw.in

     Current dimensions of program PWSCF are:
     Max number of different atomic species (ntypx) = 10
     Max number of k-points (npk) =  40000
     Max angular momentum in pseudopotentials (lmaxx) =  3
               file Fe.pbe-spn-kjpaw_psl.0.2.1.UPF: wavefunction(s)  3D renormalized

     G-vector sticks info
     --------------------
     sticks:   dense  smooth     PW     G-vecs:    dense   smooth      PW
     Sum         411     337    103                 5425     3925     683

     Generating pointlists ...
     new r_m :   0.3572 (alat units)  1.9469 (a.u.) for type    1


     bravais-lattice index     =            3
     lattice parameter (alat)  =       5.4500  a.u.
     unit-cell volume          =      80.9393 (a.u.)^3
     number of atoms/cell      =            1
     number of atomic types    =            1
     number of electrons       =        16.00
     number of Kohn-Sham states=           12
     kinetic-energy cutoff     =      50.0000  Ry
     charge density cutoff     =     250.0000  Ry
     convergence threshold     =      1.0E-08
     mixing beta               =       0.7000
     number of iterations used =            8  plain     mixing
     Exchange-correlation      =  SLA  PW   PBX  PBC ( 1  4  3  4 0 0)

     celldm(1)=   5.450000  celldm(2)=   0.000000  celldm(3)=   0.000000
     celldm(4)=   0.000000  celldm(5)=   0.000000  celldm(6)=   0.000000

     crystal axes: (cart. coord. in units of alat)
               a(1) = (   0.500000   0.500000   0.500000 )  
               a(2) = (  -0.500000   0.500000   0.500000 )  
               a(3) = (  -0.500000  -0.500000   0.500000 )  

     reciprocal axes: (cart. coord. in units 2 pi/alat)
               b(1) = (  1.000000  0.000000  1.000000 )  
               b(2) = ( -1.000000  1.000000  0.000000 )  
               b(3) = (  0.000000 -1.000000  1.000000 )  


     PseudoPot. # 1 for Fe read from file:
     ./Fe.pbe-spn-kjpaw_psl.0.2.1.UPF
     MD5 check sum: a0a08122d52b112de96d1da1d7dd020f
     Pseudo is Projector augmented-wave + core cor, Zval = 16.0
     Generated using "atomic" code by A. Dal Corso  v.5.0.2 svn rev. 9415
     Shape of augmentation charge: PSQ
     Using radial grid of 1191 points,  6 beta functions with: 
                l(1) =   0
                l(2) =   0
                l(3) =   1
                l(4) =   1
                l(5) =   2
                l(6) =   2
     Q(r) pseudized with 0 coefficients 


     atomic species   valence    mass     pseudopotential
        Fe            16.00    55.85000     Fe( 1.00)

     Starting magnetic structure 
     atomic species   magnetization
        Fe           0.700

     48 Sym. Ops., with inversion, found



   Cartesian axes

     site n.     atom                  positions (alat units)
         1           Fe  tau(   1) = (   0.0000000   0.0000000   0.0000000  )

     number of k points=    70  Marzari-Vanderbilt smearing, width (Ry)=  0.0250
                       cart. coord. in units 2pi/alat
        k(    1) = (   0.0000000   0.0000000   0.0000000), wk =   0.0013717
        k(    2) = (   0.0000000  -0.1111111   0.1111111), wk =   0.0164609
        k(    3) = (   0.0000000  -0.2222222   0.2222222), wk =   0.0164609
        k(    4) = (   0.0000000  -0.3333333   0.3333333), wk =   0.0164609
        k(    5) = (   0.0000000  -0.4444444   0.4444444), wk =   0.0164609
        k(    6) = (  -0.1111111  -0.1111111   0.2222222), wk =   0.0329218
        k(    7) = (  -0.1111111  -0.2222222   0.3333333), wk =   0.0658436
        k(    8) = (  -0.1111111  -0.3333333   0.4444444), wk =   0.0658436
        k(    9) = (  -0.1111111   0.5555556  -0.4444444), wk =   0.0329218
        k(   10) = (  -0.2222222  -0.2222222   0.4444444), wk =   0.0329218
        k(   11) = (  -0.2222222   0.6666667  -0.4444444), wk =   0.0658436
        k(   12) = (  -0.3333333   0.6666667  -0.3333333), wk =   0.0109739
        k(   13) = (   0.0000000   0.0000000   0.2222222), wk =   0.0082305
        k(   14) = (   0.0000000  -0.1111111   0.3333333), wk =   0.0329218
        k(   15) = (   0.0000000  -0.2222222   0.4444444), wk =   0.0329218
        k(   16) = (   0.0000000  -0.3333333   0.5555556), wk =   0.0329218
        k(   17) = (  -0.1111111  -0.1111111   0.4444444), wk =   0.0329218
        k(   18) = (  -0.1111111  -0.2222222   0.5555556), wk =   0.0658436
        k(   19) = (  -0.1111111   0.6666667  -0.3333333), wk =   0.0329218
        k(   20) = (  -0.2222222   0.2222222   0.2222222), wk =   0.0109739
        k(   21) = (  -0.2222222   0.7777778  -0.3333333), wk =   0.0329218
        k(   22) = (  -0.3333333   0.3333333   0.2222222), wk =   0.0329218
        k(   23) = (   0.5555556  -0.5555556   0.2222222), wk =   0.0329218
        k(   24) = (   0.5555556  -0.6666667   0.3333333), wk =   0.0329218
        k(   25) = (   0.4444444  -0.5555556   0.3333333), wk =   0.0329218
        k(   26) = (   0.0000000   0.0000000   0.4444444), wk =   0.0082305
        k(   27) = (   0.0000000  -0.1111111   0.5555556), wk =   0.0329218
        k(   28) = (   0.0000000  -0.2222222   0.6666667), wk =   0.0329218
        k(   29) = (  -0.1111111  -0.1111111   0.6666667), wk =   0.0329218
        k(   30) = (  -0.1111111   0.7777778  -0.2222222), wk =   0.0329218
        k(   31) = (   0.5555556  -0.5555556   0.4444444), wk =   0.0109739
        k(   32) = (   0.0000000   0.0000000   0.6666667), wk =   0.0082305
        k(   33) = (   0.0000000  -0.1111111   0.7777778), wk =   0.0329218
        k(   34) = (  -0.1111111   0.8888889  -0.1111111), wk =   0.0109739
        k(   35) = (   0.0000000   0.0000000   0.8888889), wk =   0.0082305
        k(   36) = (   0.0000000   0.0000000   0.0000000), wk =   0.0013717
        k(   37) = (   0.0000000  -0.1111111   0.1111111), wk =   0.0164609
        k(   38) = (   0.0000000  -0.2222222   0.2222222), wk =   0.0164609
        k(   39) = (   0.0000000  -0.3333333   0.3333333), wk =   0.0164609
        k(   40) = (   0.0000000  -0.4444444   0.4444444), wk =   0.0164609
        k(   41) = (  -0.1111111  -0.1111111   0.2222222), wk =   0.0329218
        k(   42) = (  -0.1111111  -0.2222222   0.3333333), wk =   0.0658436
        k(   43) = (  -0.1111111  -0.3333333   0.4444444), wk =   0.0658436
        k(   44) = (  -0.1111111   0.5555556  -0.4444444), wk =   0.0329218
        k(   45) = (  -0.2222222  -0.2222222   0.4444444), wk =   0.0329218
        k(   46) = (  -0.2222222   0.6666667  -0.4444444), wk =   0.0658436
        k(   47) = (  -0.3333333   0.6666667  -0.3333333), wk =   0.0109739
        k(   48) = (   0.0000000   0.0000000   0.2222222), wk =   0.0082305
        k(   49) = (   0.0000000  -0.1111111   0.3333333), wk =   0.0329218
        k(   50) = (   0.0000000  -0.2222222   0.4444444), wk =   0.0329218
        k(   51) = (   0.0000000  -0.3333333   0.5555556), wk =   0.0329218
        k(   52) = (  -0.1111111  -0.1111111   0.4444444), wk =   0.0329218
        k(   53) = (  -0.1111111  -0.2222222   0.5555556), wk =   0.0658436
        k(   54) = (  -0.1111111   0.6666667  -0.3333333), wk =   0.0329218
        k(   55) = (  -0.2222222   0.2222222   0.2222222), wk =   0.0109739
        k(   56) = (  -0.2222222   0.7777778  -0.3333333), wk =   0.0329218
        k(   57) = (  -0.3333333   0.3333333   0.2222222), wk =   0.0329218
        k(   58) = (   0.5555556  -0.5555556   0.2222222), wk =   0.0329218
        k(   59) = (   0.5555556  -0.6666667   0.3333333), wk =   0.0329218
        k(   60) = (   0.4444444  -0.5555556   0.3333333), wk =   0.0329218
        k(   61) = (   0.0000000   0.0000000   0.4444444), wk =   0.0082305
        k(   62) = (   0.0000000  -0.1111111   0.5555556), wk =   0.0329218
        k(   63) = (   0.0000000  -0.2222222   0.6666667), wk =   0.0329218
        k(   64) = (  -0.1111111  -0.1111111   0.6666667), wk =   0.0329218
        k(   65) = (  -0.1111111   0.7777778  -0.2222222), wk =   0.0329218
        k(   66) = (   0.5555556  -0.5555556   0.4444444), wk =   0.0109739
        k(   67) = (   0.0000000   0.0000000   0.6666667), wk =   0.0082305
        k(   68) = (   0.0000000  -0.1111111   0.7777778), wk =   0.0329218
        k(   69) = (  -0.1111111   0.8888889  -0.1111111), wk =   0.0109739
        k(   70) = (   0.0000000   0.0000000   0.8888889), wk =   0.0082305

     Dense  grid:     5425 G-vectors     FFT dimensions: (  24,  24,  24)

     Smooth grid:     3925 G-vectors     FFT dimensions: (  24,  24,  24)

     Largest allocated arrays     est. size (Mb)     dimensions
        Kohn-Sham Wavefunctions         0.09 Mb     (     493,   12)
        NL pseudopotentials             0.14 Mb     (     493,   18)
        Each V/rho on FFT grid          0.42 Mb     (   13824,   2)
        Each G-vector array             0.04 Mb     (    5425)
        G-vector shells                 0.00 Mb     (      88)
     Largest temporary arrays     est. size (Mb)     dimensions
        Auxiliary wavefunctions         0.36 Mb     (     493,   48)
        Each subspace H/S matrix        0.04 Mb     (      48,   48)
        Each <psi_i|beta_j> matrix      0.00 Mb     (      18,   12)
        Arrays for rho mixing           1.69 Mb     (   13824,    8)

     Check: negative/imaginary core charge=   -0.000421    0.000000

     Initial potential from superposition of free atoms

     starting charge   15.99956, renormalised to   16.00000
     Starting wfc are   13 randomized atomic wfcs

     total cpu time spent up to now is        2.1 secs

     Self-consistent Calculation

     iteration #  1     ecut=    50.00 Ry     beta=0.70
     Davidson diagonalization with overlap
     ethr =  1.00E-02,  avg # of iterations =  3.2

     negative rho (up, down):  0.000E+00 3.565E-04

     Magnetic moment per site:
     atom:    1    charge:   14.3043    magn:    5.7079    constr:    0.0000

     total cpu time spent up to now is        4.2 secs

     total energy              =    -328.99154962 Ry
     Harris-Foulkes estimate   =    -328.06817766 Ry
     estimated scf accuracy    <       1.50549933 Ry

     total magnetization       =     3.85 Bohr mag/cell
     absolute magnetization    =     3.89 Bohr mag/cell

     iteration #  2     ecut=    50.00 Ry     beta=0.70
     Davidson diagonalization with overlap
     ethr =  9.41E-03,  avg # of iterations =  1.2

     negative rho (up, down):  0.000E+00 3.838E-04

     Magnetic moment per site:
     atom:    1    charge:   14.5329    magn:    3.5356    constr:    0.0000

     total cpu time spent up to now is        6.1 secs

     total energy              =    -329.15984791 Ry
     Harris-Foulkes estimate   =    -329.10534907 Ry
     estimated scf accuracy    <       0.34760954 Ry

     total magnetization       =     3.08 Bohr mag/cell
     absolute magnetization    =     3.21 Bohr mag/cell

     iteration #  3     ecut=    50.00 Ry     beta=0.70
     Davidson diagonalization with overlap
     ethr =  2.17E-03,  avg # of iterations =  2.1

     negative rho (up, down):  0.000E+00 3.950E-04

     Magnetic moment per site:
     atom:    1    charge:   14.4173    magn:    2.5382    constr:    0.0000

     total cpu time spent up to now is        8.0 secs

     total energy              =    -329.18053977 Ry
     Harris-Foulkes estimate   =    -329.34555437 Ry
     estimated scf accuracy    <       0.47614962 Ry

     total magnetization       =     2.56 Bohr mag/cell
     absolute magnetization    =     2.71 Bohr mag/cell

     iteration #  4     ecut=    50.00 Ry     beta=0.70
     Davidson diagonalization with overlap
     ethr =  2.17E-03,  avg # of iterations =  2.0

     negative rho (up, down):  0.000E+00 2.606E-04

     Magnetic moment per site:
     atom:    1    charge:   14.4502    magn:    2.4242    constr:    0.0000

     total cpu time spent up to now is        9.8 secs

     total energy              =    -329.25780958 Ry
     Harris-Foulkes estimate   =    -329.25709566 Ry
     estimated scf accuracy    <       0.00138386 Ry

     total magnetization       =     2.41 Bohr mag/cell
     absolute magnetization    =     2.58 Bohr mag/cell

     iteration #  5     ecut=    50.00 Ry     beta=0.70
     Davidson diagonalization with overlap
     ethr =  8.65E-06,  avg # of iterations =  3.5

     negative rho (up, down):  0.000E+00 2.570E-04

     Magnetic moment per site:
     atom:    1    charge:   14.4474    magn:    2.4003    constr:    0.0000

     total cpu time spent up to now is       12.2 secs

     total energy              =    -329.26046361 Ry
     Harris-Foulkes estimate   =    -329.26022382 Ry
     estimated scf accuracy    <       0.00047452 Ry

     total magnetization       =     2.31 Bohr mag/cell
     absolute magnetization    =     2.45 Bohr mag/cell

     iteration #  6     ecut=    50.00 Ry     beta=0.70
     Davidson diagonalization with overlap
     ethr =  2.97E-06,  avg # of iterations =  1.0

     negative rho (up, down):  0.000E+00 1.781E-04

     Magnetic moment per site:
     atom:    1    charge:   14.4409    magn:    2.2026    constr:    0.0000

     total cpu time spent up to now is       13.9 secs

     total energy              =    -329.25991531 Ry
     Harris-Foulkes estimate   =    -329.26050974 Ry
     estimated scf accuracy    <       0.00038663 Ry

     total magnetization       =     2.28 Bohr mag/cell
     absolute magnetization    =     2.43 Bohr mag/cell

     iteration #  7     ecut=    50.00 Ry     beta=0.70
     Davidson diagonalization with overlap
     ethr =  2.42E-06,  avg # of iterations =  2.1

     negative rho (up, down):  0.000E+00 1.913E-04

     Magnetic moment per site:
     atom:    1    charge:   14.4398    magn:    2.2265    constr:    0.0000

     total cpu time spent up to now is       15.9 secs

     total energy              =    -329.26118662 Ry
     Harris-Foulkes estimate   =    -329.26088064 Ry
     estimated scf accuracy    <       0.00001355 Ry

     total magnetization       =     2.15 Bohr mag/cell
     absolute magnetization    =     2.28 Bohr mag/cell

     iteration #  8     ecut=    50.00 Ry     beta=0.70
     Davidson diagonalization with overlap
     ethr =  8.47E-08,  avg # of iterations =  2.6

     negative rho (up, down):  0.000E+00 1.823E-04

     Magnetic moment per site:
     atom:    1    charge:   14.4403    magn:    2.2004    constr:    0.0000

     total cpu time spent up to now is       17.9 secs

     total energy              =    -329.26121446 Ry
     Harris-Foulkes estimate   =    -329.26119632 Ry
     estimated scf accuracy    <       0.00001479 Ry

     total magnetization       =     2.16 Bohr mag/cell
     absolute magnetization    =     2.29 Bohr mag/cell

     iteration #  9     ecut=    50.00 Ry     beta=0.70
     Davidson diagonalization with overlap
     ethr =  8.47E-08,  avg # of iterations =  2.0

     negative rho (up, down):  0.000E+00 1.812E-04

     Magnetic moment per site:
     atom:    1    charge:   14.4401    magn:    2.1914    constr:    0.0000

     total cpu time spent up to now is       19.7 secs

     total energy              =    -329.26124697 Ry
     Harris-Foulkes estimate   =    -329.26123707 Ry
     estimated scf accuracy    <       0.00000328 Ry

     total magnetization       =     2.14 Bohr mag/cell
     absolute magnetization    =     2.27 Bohr mag/cell

     iteration # 10     ecut=    50.00 Ry     beta=0.70
     Davidson diagonalization with overlap
     ethr =  2.05E-08,  avg # of iterations =  2.2

     negative rho (up, down):  0.000E+00 1.782E-04

     Magnetic moment per site:
     atom:    1    charge:   14.4400    magn:    2.1825    constr:    0.0000

     total cpu time spent up to now is       21.5 secs

     total energy              =    -329.26125266 Ry
     Harris-Foulkes estimate   =    -329.26125108 Ry
     estimated scf accuracy    <       0.00000122 Ry

     total magnetization       =     2.14 Bohr mag/cell
     absolute magnetization    =     2.26 Bohr mag/cell

     iteration # 11     ecut=    50.00 Ry     beta=0.70
     Davidson diagonalization with overlap
     ethr =  7.62E-09,  avg # of iterations =  2.0

     negative rho (up, down):  0.000E+00 1.783E-04

     Magnetic moment per site:
     atom:    1    charge:   14.4399    magn:    2.1820    constr:    0.0000

     total cpu time spent up to now is       23.3 secs

     total energy              =    -329.26125662 Ry
     Harris-Foulkes estimate   =    -329.26125499 Ry
     estimated scf accuracy    <       0.00000004 Ry

     total magnetization       =     2.13 Bohr mag/cell
     absolute magnetization    =     2.25 Bohr mag/cell

     iteration # 12     ecut=    50.00 Ry     beta=0.70
     Davidson diagonalization with overlap
     ethr =  2.42E-10,  avg # of iterations =  2.7

     negative rho (up, down):  0.000E+00 1.755E-04

     Magnetic moment per site:
     atom:    1    charge:   14.4398    magn:    2.1734    constr:    0.0000

     total cpu time spent up to now is       25.3 secs

     total energy              =    -329.26125085 Ry
     Harris-Foulkes estimate   =    -329.26125672 Ry
     estimated scf accuracy    <       0.00000005 Ry

     total magnetization       =     2.13 Bohr mag/cell
     absolute magnetization    =     2.25 Bohr mag/cell

     iteration # 13     ecut=    50.00 Ry     beta=0.70
     Davidson diagonalization with overlap
     ethr =  2.42E-10,  avg # of iterations =  3.5

     negative rho (up, down):  0.000E+00 1.782E-04

     Magnetic moment per site:
     atom:    1    charge:   14.4399    magn:    2.1809    constr:    0.0000

     total cpu time spent up to now is       27.6 secs

     total energy              =    -329.26125568 Ry
     Harris-Foulkes estimate   =    -329.26125313 Ry
     estimated scf accuracy    <       0.00000102 Ry

     total magnetization       =     2.13 Bohr mag/cell
     absolute magnetization    =     2.25 Bohr mag/cell

     iteration # 14     ecut=    50.00 Ry     beta=0.70
     Davidson diagonalization with overlap
     ethr =  2.42E-10,  avg # of iterations =  3.2

     negative rho (up, down):  0.000E+00 1.777E-04

     Magnetic moment per site:
     atom:    1    charge:   14.4399    magn:    2.1796    constr:    0.0000

     total cpu time spent up to now is       29.7 secs

     total energy              =    -329.26125708 Ry
     Harris-Foulkes estimate   =    -329.26125696 Ry
     estimated scf accuracy    <       0.00000003 Ry

     total magnetization       =     2.13 Bohr mag/cell
     absolute magnetization    =     2.25 Bohr mag/cell

     iteration # 15     ecut=    50.00 Ry     beta=0.70
     Davidson diagonalization with overlap
     ethr =  2.19E-10,  avg # of iterations =  1.8

     negative rho (up, down):  0.000E+00 1.777E-04

     Magnetic moment per site:
     atom:    1    charge:   14.4399    magn:    2.1796    constr:    0.0000

     total cpu time spent up to now is       31.5 secs

     End of self-consistent calculation

 ------ SPIN UP ------------


          k = 0.0000 0.0000 0.0000 (   459 PWs)   bands (ev):

   -70.9129 -36.7490 -36.7490 -36.7490   8.8884  14.9993  14.9993  14.9993
    15.9016  15.9016  41.4611  41.4611

          k = 0.0000-0.1111 0.1111 (   487 PWs)   bands (ev):

   -70.9067 -36.7925 -36.7645 -36.7513   9.3738  14.8728  14.9748  15.2530
    15.8010  15.9125  38.5765  40.5795

          k = 0.0000-0.2222 0.2222 (   485 PWs)   bands (ev):

   -70.8881 -36.8948 -36.7993 -36.7515  10.6946  14.5623  14.8132  15.7879
    15.9358  15.9503  33.5836  38.2874

          k = 0.0000-0.3333 0.3333 (   489 PWs)   bands (ev):

   -70.8672 -37.0105 -36.8388 -36.7519  12.0757  14.2243  15.1743  16.0074
    16.0122  16.7990  28.5977  36.2233

          k = 0.0000-0.4444 0.4444 (   488 PWs)   bands (ev):

   -70.8533 -37.0851 -36.8641 -36.7515  12.4213  14.0117  15.9966  16.0641
    17.1397  17.4287  24.6957  35.0907

          k =-0.1111-0.1111 0.2222 (   487 PWs)   bands (ev):

   -70.8938 -36.8632 -36.7803 -36.7611  10.2885  14.7200  14.7537  15.6934
    15.7811  15.9831  35.8958  37.0437

          k =-0.1111-0.2222 0.3333 (   488 PWs)   bands (ev):

   -70.8740 -36.9636 -36.8218 -36.7654  11.7727  14.3723  14.5961  15.7765
    16.0850  16.7151  31.2443  34.5851

          k =-0.1111-0.3333 0.4444 (   482 PWs)   bands (ev):

   -70.8563 -37.0485 -36.8626 -36.7658  12.6150  14.1158  15.1646  15.9960
    16.3361  17.9762  26.6045  33.1552

          k =-0.1111 0.5556-0.4444 (   486 PWs)   bands (ev):

   -70.8496 -37.0816 -36.8794 -36.7663  12.6633  14.0228  15.5708  16.0146
    16.7557  19.1860  24.0407  32.6347

          k =-0.2222-0.2222 0.4444 (   486 PWs)   bands (ev):

   -70.8577 -37.0196 -36.8671 -36.7822  12.9508  14.0356  14.5524  15.8693
    16.2527  18.2164  29.2070  29.9178

          k =-0.2222 0.6667-0.4444 (   484 PWs)   bands (ev):

   -70.8471 -37.0420 -36.9159 -36.7878  13.2583  14.0187  14.6898  16.0479
    16.4526  20.4786  25.2585  28.6347

          k =-0.3333 0.6667-0.3333 (   481 PWs)   bands (ev):

   -70.8433 -36.9889 -36.9889 -36.7946  13.6874  14.1353  14.1353  16.2921
    16.2921  23.6071  23.6071  25.9785

          k = 0.0000 0.0000 0.2222 (   490 PWs)   bands (ev):

   -70.8997 -36.8029 -36.7792 -36.7792   9.8453  15.0127  15.0127  15.2552
    15.4987  16.0591  37.8094  39.6641

          k = 0.0000-0.1111 0.3333 (   484 PWs)   bands (ev):

   -70.8815 -36.8933 -36.8140 -36.7843  11.1019  14.7774  14.8021  15.4407
    15.8756  16.2231  33.9028  37.2255

          k = 0.0000-0.2222 0.4444 (   478 PWs)   bands (ev):

   -70.8608 -37.0032 -36.8535 -36.7818  12.3937  14.4985  14.5716  15.8118
    16.7505  16.7505  28.9270  35.5928

          k = 0.0000-0.3333 0.5556 (   480 PWs)   bands (ev):

   -70.8475 -37.0743 -36.8795 -36.7803  12.6831  14.3041  14.9149  15.8704
    17.3960  18.5153  24.8673  34.3654

          k =-0.1111-0.1111 0.4444 (   480 PWs)   bands (ev):

   -70.8627 -36.9650 -36.8553 -36.8037  12.3465  14.2669  14.8828  15.5194
    16.3521  16.9126  31.6356  32.3922

          k =-0.1111-0.2222 0.5556 (   478 PWs)   bands (ev):

   -70.8462 -37.0342 -36.8998 -36.8059  13.0625  14.0381  14.7019  15.8333
    16.8220  18.7646  27.1756  30.6194

          k =-0.1111 0.6667-0.3333 (   484 PWs)   bands (ev):

   -70.8400 -37.0618 -36.9186 -36.8060  13.0621  14.3160  14.4398  15.9067
    17.1468  20.7242  24.2283  30.0604

          k =-0.2222 0.2222 0.2222 (   477 PWs)   bands (ev):

   -70.8786 -36.9470 -36.7831 -36.7831  11.5208  14.3773  14.3773  15.9119
    15.9119  16.7489  33.7422  33.7422

          k =-0.2222 0.7778-0.3333 (   477 PWs)   bands (ev):

   -70.8367 -37.0279 -36.9650 -36.8129  13.6594  13.6596  14.3876  16.2625
    16.7536  21.7362  25.5654  26.7619

          k =-0.3333 0.3333 0.2222 (   491 PWs)   bands (ev):

   -70.8624 -37.0166 -36.8371 -36.7874  12.8620  14.0869  14.3511  15.9837
    16.0322  18.1158  29.1711  32.1415

          k = 0.5556-0.5556 0.2222 (   493 PWs)   bands (ev):

   -70.8515 -37.0497 -36.8828 -36.7904  13.0642  13.9347  15.2556  16.0765
    16.0800  19.9933  25.0747  31.2854

          k = 0.5556-0.6667 0.3333 (   485 PWs)   bands (ev):

   -70.8518 -37.0238 -36.8793 -36.8160  13.6017  13.9657  14.3826  16.0619
    16.1152  20.2289  27.5105  28.2291

          k = 0.4444-0.5556 0.3333 (   488 PWs)   bands (ev):

   -70.8478 -37.0043 -36.9239 -36.8228  13.5967  13.9819  14.6379  16.1183
    16.1427  22.5243  24.5354  27.4845

          k = 0.0000 0.0000 0.4444 (   478 PWs)   bands (ev):

   -70.8646 -36.9049 -36.8507 -36.8507  12.1062  14.4659  15.2708  15.2708
    15.9148  16.6975  34.5423  34.7848

          k = 0.0000-0.1111 0.5556 (   478 PWs)   bands (ev):

   -70.8458 -36.9854 -36.8921 -36.8594  12.9560  13.8746  15.2381  15.6395
    16.6426  17.9337  29.8744  32.6029

          k = 0.0000-0.2222 0.6667 (   486 PWs)   bands (ev):

   -70.8338 -37.0478 -36.9195 -36.8558  13.0660  13.7485  15.1145  15.7765
    17.3139  20.4755  25.4809  31.2849

          k =-0.1111-0.1111 0.6667 (   481 PWs)   bands (ev):

   -70.8312 -37.0179 -36.9440 -36.8752  13.2221  13.3814  15.2856  16.1295
    16.9737  20.2927  28.0956  28.6031

          k =-0.1111 0.7778-0.2222 (   479 PWs)   bands (ev):

   -70.8253 -37.0310 -36.9707 -36.8743  13.1358  13.3418  15.1924  16.3991
    17.1576  23.0236  24.8017  27.8019

          k = 0.5556-0.5556 0.4444 (   477 PWs)   bands (ev):

   -70.8476 -36.9743 -36.8882 -36.8882  13.9937  13.9937  14.2850  16.1029
    16.1029  23.0374  26.6221  26.6221

          k = 0.0000 0.0000 0.6667 (   482 PWs)   bands (ev):

   -70.8289 -36.9775 -36.9359 -36.9359  13.0281  13.2965  16.0594  16.0594
    16.6841  19.7477  30.1862  30.1862

          k = 0.0000-0.1111 0.7778 (   480 PWs)   bands (ev):

   -70.8177 -37.0175 -36.9647 -36.9397  12.8770  12.9497  16.2128  16.4208
    17.2225  22.6162  26.6356  28.7119

          k =-0.1111 0.8889-0.1111 (   478 PWs)   bands (ev):

   -70.8124 -37.0041 -37.0041 -36.9472  12.7470  12.7470  16.3128  17.0997
    17.0997  25.5397  25.5397  26.4580

          k = 0.0000 0.0000 0.8889 (   486 PWs)   bands (ev):

   -70.8076 -36.9999 -36.9940 -36.9940  12.5486  12.5499  17.0712  17.0712
    17.1966  25.0633  27.1053  27.1053

 ------ SPIN DOWN ----------


          k = 0.0000 0.0000 0.0000 (   459 PWs)   bands (ev):

   -68.3394 -34.2221 -34.2221 -34.2221   9.0497  16.6622  16.6622  16.6622
    18.9207  18.9207  41.2020  41.2020

          k = 0.0000-0.1111 0.1111 (   487 PWs)   bands (ev):

   -68.3324 -34.2698 -34.2387 -34.2242   9.5384  16.5125  16.6302  16.9370
    18.7638  18.9329  38.7304  40.5150

          k = 0.0000-0.2222 0.2222 (   485 PWs)   bands (ev):

   -68.3122 -34.3837 -34.2768 -34.2244  10.9010  16.1472  16.4714  17.6811
    18.5548  18.9811  34.1166  38.4024

          k = 0.0000-0.3333 0.3333 (   489 PWs)   bands (ev):

   -68.2894 -34.5121 -34.3202 -34.2248  12.6326  15.7537  16.4658  18.5737
    18.6345  19.0682  29.4045  36.3281

          k = 0.0000-0.4444 0.4444 (   488 PWs)   bands (ev):

   -68.2743 -34.5948 -34.3481 -34.2244  13.5711  15.5081  17.3930  18.6659
    19.1455  19.3419  25.8569  35.1533

          k =-0.1111-0.1111 0.2222 (   487 PWs)   bands (ev):

   -68.3184 -34.3484 -34.2560 -34.2351  10.4701  16.3277  16.4144  17.4967
    18.5413  19.0007  36.2618  37.3734

          k =-0.1111-0.2222 0.3333 (   488 PWs)   bands (ev):

   -68.2969 -34.4598 -34.3017 -34.2397  12.0899  15.9495  16.1786  18.4196
    18.4589  19.1215  31.8925  34.9974

          k =-0.1111-0.3333 0.4444 (   482 PWs)   bands (ev):

   -68.2777 -34.5541 -34.3467 -34.2403  13.5460  15.6217  16.4186  18.5602
    19.0985  19.6768  27.5290  33.5653

          k =-0.1111 0.5556-0.4444 (   486 PWs)   bands (ev):

   -68.2703 -34.5908 -34.3651 -34.2408  13.9162  15.5028  16.9747  18.6422
    19.1922  20.4376  25.2751  33.0335

          k =-0.2222-0.2222 0.4444 (   486 PWs)   bands (ev):

   -68.2792 -34.5218 -34.3521 -34.2582  13.6301  15.6819  15.9040  18.4457
    19.0513  19.9437  29.9571  30.5237

          k =-0.2222 0.6667-0.4444 (   484 PWs)   bands (ev):

   -68.2677 -34.5466 -34.4061 -34.2644  14.5002  15.5227  16.0515  18.6179
    19.0592  21.7585  26.2377  29.2827

          k =-0.3333 0.6667-0.3333 (   481 PWs)   bands (ev):

   -68.2636 -34.4874 -34.4874 -34.2719  15.0150  15.6179  15.6179  18.8422
    18.8422  24.6070  24.6070  26.7993

          k = 0.0000 0.0000 0.2222 (   490 PWs)   bands (ev):

   -68.3249 -34.2819 -34.2548 -34.2548  10.0176  16.6489  16.6489  16.9426
    18.3751  19.1124  37.9987  39.8718

          k = 0.0000-0.1111 0.3333 (   484 PWs)   bands (ev):

   -68.3051 -34.3821 -34.2932 -34.2606  11.3363  16.3992  16.5611  17.6141
    17.9750  19.2518  34.4491  37.5380

          k = 0.0000-0.2222 0.4444 (   478 PWs)   bands (ev):

   -68.2827 -34.5038 -34.3366 -34.2581  13.0126  16.0461  16.3348  18.1033
    18.5794  19.4478  29.7212  35.8659

          k = 0.0000-0.3333 0.5556 (   480 PWs)   bands (ev):

   -68.2681 -34.5826 -34.3652 -34.2565  13.9300  15.8214  16.6203  18.3135
    19.3054  20.1740  25.9843  34.8643

          k =-0.1111-0.1111 0.4444 (   480 PWs)   bands (ev):

   -68.2848 -34.4615 -34.3388 -34.2821  12.8123  16.2115  16.4208  17.7409
    18.3309  19.5183  32.3417  32.9356

          k =-0.1111-0.2222 0.5556 (   478 PWs)   bands (ev):

   -68.2668 -34.5379 -34.3880 -34.2846  14.1585  15.8400  16.2686  18.0332
    18.9524  20.5317  28.0516  31.2378

          k =-0.1111 0.6667-0.3333 (   484 PWs)   bands (ev):

   -68.2599 -34.5683 -34.4087 -34.2846  14.5341  15.9876  16.0600  18.1792
    19.1810  21.9630  25.3786  30.6709

          k =-0.2222 0.2222 0.2222 (   477 PWs)   bands (ev):

   -68.3020 -34.4416 -34.2593 -34.2593  11.7493  15.9646  15.9646  18.4778
    18.8266  18.8266  34.1849  34.1849

          k =-0.2222 0.7778-0.3333 (   477 PWs)   bands (ev):

   -68.2564 -34.5307 -34.4604 -34.2921  15.1282  15.4781  15.9777  18.3799
    18.8784  22.9749  26.5431  27.4994

          k =-0.3333 0.3333 0.2222 (   491 PWs)   bands (ev):

   -68.2842 -34.5186 -34.3187 -34.2641  13.4002  15.5757  15.7463  18.7958
    19.0457  19.7380  29.8703  32.5861

          k = 0.5556-0.5556 0.2222 (   493 PWs)   bands (ev):

   -68.2723 -34.5553 -34.3692 -34.2672  14.2383  15.3620  16.2402  18.8504
    19.1611  21.2053  26.0784  31.7094

          k = 0.5556-0.6667 0.3333 (   485 PWs)   bands (ev):

   -68.2727 -34.5263 -34.3661 -34.2957  14.6349  15.3875  15.5270  18.9362
    19.1296  21.5354  28.2420  28.8835

          k = 0.4444-0.5556 0.3333 (   488 PWs)   bands (ev):

   -68.2684 -34.5048 -34.4153 -34.3032  14.8604  15.3246  15.7874  19.0059
    19.1468  23.4564  25.5029  28.1544

          k = 0.0000 0.0000 0.4444 (   478 PWs)   bands (ev):

   -68.2870 -34.3956 -34.3337 -34.3337  12.5072  16.8779  16.8779  17.0038
    17.6678  19.5347  35.1838  35.3021

          k = 0.0000-0.1111 0.5556 (   478 PWs)   bands (ev):

   -68.2664 -34.4840 -34.3793 -34.3438  13.8877  16.0717  16.8379  17.4759
    18.4599  20.1046  30.6046  33.1225

          k = 0.0000-0.2222 0.6667 (   486 PWs)   bands (ev):

   -68.2532 -34.5526 -34.4095 -34.3396  14.6685  15.6480  16.6980  17.7685
    19.2139  21.8277  26.4483  31.7665

          k =-0.1111-0.1111 0.6667 (   481 PWs)   bands (ev):

   -68.2504 -34.5194 -34.4368 -34.3609  14.7420  15.4721  16.9153  17.9271
    18.8816  21.7141  28.9081  29.2086

          k =-0.1111 0.7778-0.2222 (   479 PWs)   bands (ev):

   -68.2440 -34.5336 -34.4664 -34.3599  15.0486  15.2458  16.7540  18.2591
    19.0704  24.0525  25.7453  28.4522

          k = 0.5556-0.5556 0.4444 (   477 PWs)   bands (ev):

   -68.2683 -34.4719 -34.3760 -34.3760  15.2744  15.2744  15.3691  19.1725
    19.1725  23.9768  27.3234  27.3234

          k = 0.0000 0.0000 0.6667 (   482 PWs)   bands (ev):

   -68.2481 -34.4751 -34.4276 -34.4276  14.5374  15.5068  17.7233  17.7233
    18.5184  21.2358  30.6689  30.6689

          k = 0.0000-0.1111 0.7778 (   480 PWs)   bands (ev):

   -68.2359 -34.5184 -34.4593 -34.4323  14.7734  14.9874  17.9172  18.1578
    19.1125  23.5739  27.3005  29.1251

          k =-0.1111 0.8889-0.1111 (   478 PWs)   bands (ev):

   -68.2300 -34.5031 -34.5031 -34.4403  14.7448  14.7448  18.0096  18.9614
    18.9614  26.2078  26.2078  26.9535

          k = 0.0000 0.0000 0.8889 (   486 PWs)   bands (ev):

   -68.2249 -34.4985 -34.4915 -34.4915  14.5295  14.5791  18.9167  18.9167
    19.0879  25.5928  27.4020  27.4020

     the Fermi energy is    17.0400 ev

!    total energy              =    -329.26125712 Ry
     Harris-Foulkes estimate   =    -329.26125712 Ry
     estimated scf accuracy    <          7.4E-10 Ry

     total all-electron energy =     -2545.557793 Ry

     The total energy is the sum of the following terms:

     one-electron contribution =    -114.55512576 Ry
     hartree contribution      =      67.17597031 Ry
     xc contribution           =     -34.79054416 Ry
     ewald contribution        =    -170.94380975 Ry
     one-center paw contrib.   =     -76.14951752 Ry
     smearing contrib. (-TS)   =       0.00176976 Ry

     total magnetization       =     2.13 Bohr mag/cell
     absolute magnetization    =     2.25 Bohr mag/cell

     convergence has been achieved in  15 iterations

     Forces acting on atoms (Ry/au):


     negative rho (up, down):  0.000E+00 1.777E-04
     atom    1 type  1   force =     0.00000000    0.00000000    0.00000000

     Total force =     0.000000     Total SCF correction =     0.000000


     entering subroutine stress ...


     negative rho (up, down):  0.000E+00 1.777E-04
          total   stress  (Ry/bohr**3)                   (kbar)     P= -186.44
  -0.00126740   0.00000000  -0.00000000       -186.44      0.00     -0.00
   0.00000000  -0.00126740   0.00000000          0.00   -186.44      0.00
  -0.00000000   0.00000000  -0.00126740         -0.00      0.00   -186.44


     Writing output data file Fe_bcc.save

     init_run     :      1.56s CPU      1.63s WALL (       1 calls)
     electrons    :     29.11s CPU     29.45s WALL (       1 calls)
     forces       :      0.13s CPU      0.14s WALL (       1 calls)
     stress       :      0.47s CPU      0.47s WALL (       1 calls)

     Called by init_run:
     wfcinit      :      0.56s CPU      0.58s WALL (       1 calls)
     potinit      :      0.49s CPU      0.51s WALL (       1 calls)

     Called by electrons:
     c_bands      :     18.19s CPU     18.28s WALL (      15 calls)
     sum_band     :      3.31s CPU      3.37s WALL (      15 calls)
     v_of_rho     :      0.33s CPU      0.34s WALL (      16 calls)
     newd         :      0.24s CPU      0.26s WALL (      16 calls)
     mix_rho      :      0.04s CPU      0.05s WALL (      15 calls)

     Called by c_bands:
     init_us_2    :      0.39s CPU      0.40s WALL (    2310 calls)
     cegterg      :     17.42s CPU     17.49s WALL (    1050 calls)

     Called by *egterg:
     h_psi        :     14.74s CPU     14.90s WALL (    3578 calls)
     s_psi        :      0.39s CPU      0.33s WALL (    3578 calls)
     g_psi        :      0.09s CPU      0.09s WALL (    2458 calls)
     cdiaghg      :      1.06s CPU      1.08s WALL (    3508 calls)

     Called by h_psi:
     add_vuspsi   :      0.40s CPU      0.35s WALL (    3578 calls)

     General routines
     calbec       :      0.43s CPU      0.44s WALL (    4768 calls)
     fft          :      0.17s CPU      0.17s WALL (     530 calls)
     ffts         :      0.02s CPU      0.02s WALL (      62 calls)
     fftw         :     14.98s CPU     15.17s WALL (   76902 calls)
     interpolate  :      0.05s CPU      0.05s WALL (      62 calls)
     davcio       :      0.00s CPU      0.00s WALL (      70 calls)


     PAW routines
     PAW_pot      :      7.44s CPU      7.62s WALL (      16 calls)
     PAW_symme    :      0.02s CPU      0.02s WALL (      31 calls)

     PWSCF        :    31.76s CPU        32.27s WALL


   This run was terminated on:  14:45:45  12May2015            

=------------------------------------------------------------------------------=
   JOB DONE.
=------------------------------------------------------------------------------=
