
     Program PWSCF v.5.1.2 starts on 12May2015 at 14:44: 9 

     This program is part of the open-source Quantum ESPRESSO suite
     for quantum simulation of materials; please cite
         "P. Giannozzi et al., J. Phys.:Condens. Matter 21 395502 (2009);
          URL http://www.quantum-espresso.org", 
     in publications or presentations arising from this work. More details at
     http://www.quantum-espresso.org/quote

     Serial version
     Reading input from Fe_bcc_5.39_9.pw.in

     Current dimensions of program PWSCF are:
     Max number of different atomic species (ntypx) = 10
     Max number of k-points (npk) =  40000
     Max angular momentum in pseudopotentials (lmaxx) =  3
               file Fe.pbe-spn-kjpaw_psl.0.2.1.UPF: wavefunction(s)  3D renormalized

     G-vector sticks info
     --------------------
     sticks:   dense  smooth     PW     G-vecs:    dense   smooth      PW
     Sum         411     333    103                 5233     3781     683

     Generating pointlists ...
     new r_m :   0.3572 (alat units)  1.9255 (a.u.) for type    1


     bravais-lattice index     =            3
     lattice parameter (alat)  =       5.3900  a.u.
     unit-cell volume          =      78.2954 (a.u.)^3
     number of atoms/cell      =            1
     number of atomic types    =            1
     number of electrons       =        16.00
     number of Kohn-Sham states=           12
     kinetic-energy cutoff     =      50.0000  Ry
     charge density cutoff     =     250.0000  Ry
     convergence threshold     =      1.0E-08
     mixing beta               =       0.7000
     number of iterations used =            8  plain     mixing
     Exchange-correlation      =  SLA  PW   PBX  PBC ( 1  4  3  4 0 0)

     celldm(1)=   5.390000  celldm(2)=   0.000000  celldm(3)=   0.000000
     celldm(4)=   0.000000  celldm(5)=   0.000000  celldm(6)=   0.000000

     crystal axes: (cart. coord. in units of alat)
               a(1) = (   0.500000   0.500000   0.500000 )  
               a(2) = (  -0.500000   0.500000   0.500000 )  
               a(3) = (  -0.500000  -0.500000   0.500000 )  

     reciprocal axes: (cart. coord. in units 2 pi/alat)
               b(1) = (  1.000000  0.000000  1.000000 )  
               b(2) = ( -1.000000  1.000000  0.000000 )  
               b(3) = (  0.000000 -1.000000  1.000000 )  


     PseudoPot. # 1 for Fe read from file:
     ./Fe.pbe-spn-kjpaw_psl.0.2.1.UPF
     MD5 check sum: a0a08122d52b112de96d1da1d7dd020f
     Pseudo is Projector augmented-wave + core cor, Zval = 16.0
     Generated using "atomic" code by A. Dal Corso  v.5.0.2 svn rev. 9415
     Shape of augmentation charge: PSQ
     Using radial grid of 1191 points,  6 beta functions with: 
                l(1) =   0
                l(2) =   0
                l(3) =   1
                l(4) =   1
                l(5) =   2
                l(6) =   2
     Q(r) pseudized with 0 coefficients 


     atomic species   valence    mass     pseudopotential
        Fe            16.00    55.85000     Fe( 1.00)

     Starting magnetic structure 
     atomic species   magnetization
        Fe           0.700

     48 Sym. Ops., with inversion, found



   Cartesian axes

     site n.     atom                  positions (alat units)
         1           Fe  tau(   1) = (   0.0000000   0.0000000   0.0000000  )

     number of k points=    70  Marzari-Vanderbilt smearing, width (Ry)=  0.0250
                       cart. coord. in units 2pi/alat
        k(    1) = (   0.0000000   0.0000000   0.0000000), wk =   0.0013717
        k(    2) = (   0.0000000  -0.1111111   0.1111111), wk =   0.0164609
        k(    3) = (   0.0000000  -0.2222222   0.2222222), wk =   0.0164609
        k(    4) = (   0.0000000  -0.3333333   0.3333333), wk =   0.0164609
        k(    5) = (   0.0000000  -0.4444444   0.4444444), wk =   0.0164609
        k(    6) = (  -0.1111111  -0.1111111   0.2222222), wk =   0.0329218
        k(    7) = (  -0.1111111  -0.2222222   0.3333333), wk =   0.0658436
        k(    8) = (  -0.1111111  -0.3333333   0.4444444), wk =   0.0658436
        k(    9) = (  -0.1111111   0.5555556  -0.4444444), wk =   0.0329218
        k(   10) = (  -0.2222222  -0.2222222   0.4444444), wk =   0.0329218
        k(   11) = (  -0.2222222   0.6666667  -0.4444444), wk =   0.0658436
        k(   12) = (  -0.3333333   0.6666667  -0.3333333), wk =   0.0109739
        k(   13) = (   0.0000000   0.0000000   0.2222222), wk =   0.0082305
        k(   14) = (   0.0000000  -0.1111111   0.3333333), wk =   0.0329218
        k(   15) = (   0.0000000  -0.2222222   0.4444444), wk =   0.0329218
        k(   16) = (   0.0000000  -0.3333333   0.5555556), wk =   0.0329218
        k(   17) = (  -0.1111111  -0.1111111   0.4444444), wk =   0.0329218
        k(   18) = (  -0.1111111  -0.2222222   0.5555556), wk =   0.0658436
        k(   19) = (  -0.1111111   0.6666667  -0.3333333), wk =   0.0329218
        k(   20) = (  -0.2222222   0.2222222   0.2222222), wk =   0.0109739
        k(   21) = (  -0.2222222   0.7777778  -0.3333333), wk =   0.0329218
        k(   22) = (  -0.3333333   0.3333333   0.2222222), wk =   0.0329218
        k(   23) = (   0.5555556  -0.5555556   0.2222222), wk =   0.0329218
        k(   24) = (   0.5555556  -0.6666667   0.3333333), wk =   0.0329218
        k(   25) = (   0.4444444  -0.5555556   0.3333333), wk =   0.0329218
        k(   26) = (   0.0000000   0.0000000   0.4444444), wk =   0.0082305
        k(   27) = (   0.0000000  -0.1111111   0.5555556), wk =   0.0329218
        k(   28) = (   0.0000000  -0.2222222   0.6666667), wk =   0.0329218
        k(   29) = (  -0.1111111  -0.1111111   0.6666667), wk =   0.0329218
        k(   30) = (  -0.1111111   0.7777778  -0.2222222), wk =   0.0329218
        k(   31) = (   0.5555556  -0.5555556   0.4444444), wk =   0.0109739
        k(   32) = (   0.0000000   0.0000000   0.6666667), wk =   0.0082305
        k(   33) = (   0.0000000  -0.1111111   0.7777778), wk =   0.0329218
        k(   34) = (  -0.1111111   0.8888889  -0.1111111), wk =   0.0109739
        k(   35) = (   0.0000000   0.0000000   0.8888889), wk =   0.0082305
        k(   36) = (   0.0000000   0.0000000   0.0000000), wk =   0.0013717
        k(   37) = (   0.0000000  -0.1111111   0.1111111), wk =   0.0164609
        k(   38) = (   0.0000000  -0.2222222   0.2222222), wk =   0.0164609
        k(   39) = (   0.0000000  -0.3333333   0.3333333), wk =   0.0164609
        k(   40) = (   0.0000000  -0.4444444   0.4444444), wk =   0.0164609
        k(   41) = (  -0.1111111  -0.1111111   0.2222222), wk =   0.0329218
        k(   42) = (  -0.1111111  -0.2222222   0.3333333), wk =   0.0658436
        k(   43) = (  -0.1111111  -0.3333333   0.4444444), wk =   0.0658436
        k(   44) = (  -0.1111111   0.5555556  -0.4444444), wk =   0.0329218
        k(   45) = (  -0.2222222  -0.2222222   0.4444444), wk =   0.0329218
        k(   46) = (  -0.2222222   0.6666667  -0.4444444), wk =   0.0658436
        k(   47) = (  -0.3333333   0.6666667  -0.3333333), wk =   0.0109739
        k(   48) = (   0.0000000   0.0000000   0.2222222), wk =   0.0082305
        k(   49) = (   0.0000000  -0.1111111   0.3333333), wk =   0.0329218
        k(   50) = (   0.0000000  -0.2222222   0.4444444), wk =   0.0329218
        k(   51) = (   0.0000000  -0.3333333   0.5555556), wk =   0.0329218
        k(   52) = (  -0.1111111  -0.1111111   0.4444444), wk =   0.0329218
        k(   53) = (  -0.1111111  -0.2222222   0.5555556), wk =   0.0658436
        k(   54) = (  -0.1111111   0.6666667  -0.3333333), wk =   0.0329218
        k(   55) = (  -0.2222222   0.2222222   0.2222222), wk =   0.0109739
        k(   56) = (  -0.2222222   0.7777778  -0.3333333), wk =   0.0329218
        k(   57) = (  -0.3333333   0.3333333   0.2222222), wk =   0.0329218
        k(   58) = (   0.5555556  -0.5555556   0.2222222), wk =   0.0329218
        k(   59) = (   0.5555556  -0.6666667   0.3333333), wk =   0.0329218
        k(   60) = (   0.4444444  -0.5555556   0.3333333), wk =   0.0329218
        k(   61) = (   0.0000000   0.0000000   0.4444444), wk =   0.0082305
        k(   62) = (   0.0000000  -0.1111111   0.5555556), wk =   0.0329218
        k(   63) = (   0.0000000  -0.2222222   0.6666667), wk =   0.0329218
        k(   64) = (  -0.1111111  -0.1111111   0.6666667), wk =   0.0329218
        k(   65) = (  -0.1111111   0.7777778  -0.2222222), wk =   0.0329218
        k(   66) = (   0.5555556  -0.5555556   0.4444444), wk =   0.0109739
        k(   67) = (   0.0000000   0.0000000   0.6666667), wk =   0.0082305
        k(   68) = (   0.0000000  -0.1111111   0.7777778), wk =   0.0329218
        k(   69) = (  -0.1111111   0.8888889  -0.1111111), wk =   0.0109739
        k(   70) = (   0.0000000   0.0000000   0.8888889), wk =   0.0082305

     Dense  grid:     5233 G-vectors     FFT dimensions: (  24,  24,  24)

     Smooth grid:     3781 G-vectors     FFT dimensions: (  24,  24,  24)

     Largest allocated arrays     est. size (Mb)     dimensions
        Kohn-Sham Wavefunctions         0.09 Mb     (     477,   12)
        NL pseudopotentials             0.13 Mb     (     477,   18)
        Each V/rho on FFT grid          0.42 Mb     (   13824,   2)
        Each G-vector array             0.04 Mb     (    5233)
        G-vector shells                 0.00 Mb     (      86)
     Largest temporary arrays     est. size (Mb)     dimensions
        Auxiliary wavefunctions         0.35 Mb     (     477,   48)
        Each subspace H/S matrix        0.04 Mb     (      48,   48)
        Each <psi_i|beta_j> matrix      0.00 Mb     (      18,   12)
        Arrays for rho mixing           1.69 Mb     (   13824,    8)

     Check: negative/imaginary core charge=   -0.000419    0.000000

     Initial potential from superposition of free atoms

     starting charge   15.99956, renormalised to   16.00000
     Starting wfc are   13 randomized atomic wfcs

     total cpu time spent up to now is        2.0 secs

     Self-consistent Calculation

     iteration #  1     ecut=    50.00 Ry     beta=0.70
     Davidson diagonalization with overlap
     ethr =  1.00E-02,  avg # of iterations =  3.3

     negative rho (up, down):  0.000E+00 3.325E-04

     Magnetic moment per site:
     atom:    1    charge:   14.2841    magn:    5.6745    constr:    0.0000

     total cpu time spent up to now is        4.4 secs

     total energy              =    -328.99117575 Ry
     Harris-Foulkes estimate   =    -328.05638994 Ry
     estimated scf accuracy    <       1.51897613 Ry

     total magnetization       =     3.81 Bohr mag/cell
     absolute magnetization    =     3.85 Bohr mag/cell

     iteration #  2     ecut=    50.00 Ry     beta=0.70
     Davidson diagonalization with overlap
     ethr =  9.49E-03,  avg # of iterations =  1.2

     negative rho (up, down):  0.000E+00 3.567E-04

     Magnetic moment per site:
     atom:    1    charge:   14.5089    magn:    3.4570    constr:    0.0000

     total cpu time spent up to now is        6.2 secs

     total energy              =    -329.16540157 Ry
     Harris-Foulkes estimate   =    -329.10123005 Ry
     estimated scf accuracy    <       0.33900609 Ry

     total magnetization       =     3.05 Bohr mag/cell
     absolute magnetization    =     3.18 Bohr mag/cell

     iteration #  3     ecut=    50.00 Ry     beta=0.70
     Davidson diagonalization with overlap
     ethr =  2.12E-03,  avg # of iterations =  2.1

     negative rho (up, down):  0.000E+00 3.603E-04

     Magnetic moment per site:
     atom:    1    charge:   14.3933    magn:    2.4841    constr:    0.0000

     total cpu time spent up to now is        8.2 secs

     total energy              =    -329.18459190 Ry
     Harris-Foulkes estimate   =    -329.34284871 Ry
     estimated scf accuracy    <       0.45823241 Ry

     total magnetization       =     2.48 Bohr mag/cell
     absolute magnetization    =     2.63 Bohr mag/cell

     iteration #  4     ecut=    50.00 Ry     beta=0.70
     Davidson diagonalization with overlap
     ethr =  2.12E-03,  avg # of iterations =  2.0

     negative rho (up, down):  0.000E+00 2.105E-04

     Magnetic moment per site:
     atom:    1    charge:   14.4247    magn:    2.2930    constr:    0.0000

     total cpu time spent up to now is       10.0 secs

     total energy              =    -329.25860934 Ry
     Harris-Foulkes estimate   =    -329.25773104 Ry
     estimated scf accuracy    <       0.00188446 Ry

     total magnetization       =     2.32 Bohr mag/cell
     absolute magnetization    =     2.49 Bohr mag/cell

     iteration #  5     ecut=    50.00 Ry     beta=0.70
     Davidson diagonalization with overlap
     ethr =  1.18E-05,  avg # of iterations =  3.3

     negative rho (up, down):  0.000E+00 1.987E-04

     Magnetic moment per site:
     atom:    1    charge:   14.4175    magn:    2.2470    constr:    0.0000

     total cpu time spent up to now is       12.4 secs

     total energy              =    -329.26207810 Ry
     Harris-Foulkes estimate   =    -329.26173967 Ry
     estimated scf accuracy    <       0.00053286 Ry

     total magnetization       =     2.18 Bohr mag/cell
     absolute magnetization    =     2.32 Bohr mag/cell

     iteration #  6     ecut=    50.00 Ry     beta=0.70
     Davidson diagonalization with overlap
     ethr =  3.33E-06,  avg # of iterations =  1.5

     negative rho (up, down):  0.000E+00 9.863E-05

     Magnetic moment per site:
     atom:    1    charge:   14.4077    magn:    2.0365    constr:    0.0000

     total cpu time spent up to now is       14.1 secs

     total energy              =    -329.26109521 Ry
     Harris-Foulkes estimate   =    -329.26221628 Ry
     estimated scf accuracy    <       0.00030021 Ry

     total magnetization       =     2.15 Bohr mag/cell
     absolute magnetization    =     2.28 Bohr mag/cell

     iteration #  7     ecut=    50.00 Ry     beta=0.70
     Davidson diagonalization with overlap
     ethr =  1.88E-06,  avg # of iterations =  2.5

     negative rho (up, down):  0.000E+00 1.553E-04

     Magnetic moment per site:
     atom:    1    charge:   14.4129    magn:    2.1630    constr:    0.0000

     total cpu time spent up to now is       16.3 secs

     total energy              =    -329.26253051 Ry
     Harris-Foulkes estimate   =    -329.26212303 Ry
     estimated scf accuracy    <       0.00028570 Ry

     total magnetization       =     2.06 Bohr mag/cell
     absolute magnetization    =     2.16 Bohr mag/cell

     iteration #  8     ecut=    50.00 Ry     beta=0.70
     Davidson diagonalization with overlap
     ethr =  1.79E-06,  avg # of iterations =  2.0

     negative rho (up, down):  0.000E+00 1.515E-04

     Magnetic moment per site:
     atom:    1    charge:   14.4138    magn:    2.1507    constr:    0.0000

     total cpu time spent up to now is       18.2 secs

     total energy              =    -329.26272409 Ry
     Harris-Foulkes estimate   =    -329.26269977 Ry
     estimated scf accuracy    <       0.00003439 Ry

     total magnetization       =     2.10 Bohr mag/cell
     absolute magnetization    =     2.21 Bohr mag/cell

     iteration #  9     ecut=    50.00 Ry     beta=0.70
     Davidson diagonalization with overlap
     ethr =  2.15E-07,  avg # of iterations =  2.0

     negative rho (up, down):  0.000E+00 1.490E-04

     Magnetic moment per site:
     atom:    1    charge:   14.4137    magn:    2.1377    constr:    0.0000

     total cpu time spent up to now is       19.9 secs

     total energy              =    -329.26274128 Ry
     Harris-Foulkes estimate   =    -329.26273060 Ry
     estimated scf accuracy    <       0.00001486 Ry

     total magnetization       =     2.09 Bohr mag/cell
     absolute magnetization    =     2.20 Bohr mag/cell

     iteration # 10     ecut=    50.00 Ry     beta=0.70
     Davidson diagonalization with overlap
     ethr =  9.29E-08,  avg # of iterations =  1.4

     negative rho (up, down):  0.000E+00 1.447E-04

     Magnetic moment per site:
     atom:    1    charge:   14.4132    magn:    2.1264    constr:    0.0000

     total cpu time spent up to now is       21.6 secs

     total energy              =    -329.26274746 Ry
     Harris-Foulkes estimate   =    -329.26274555 Ry
     estimated scf accuracy    <       0.00000443 Ry

     total magnetization       =     2.08 Bohr mag/cell
     absolute magnetization    =     2.20 Bohr mag/cell

     iteration # 11     ecut=    50.00 Ry     beta=0.70
     Davidson diagonalization with overlap
     ethr =  2.77E-08,  avg # of iterations =  1.6

     negative rho (up, down):  0.000E+00 1.450E-04

     Magnetic moment per site:
     atom:    1    charge:   14.4132    magn:    2.1266    constr:    0.0000

     total cpu time spent up to now is       23.3 secs

     total energy              =    -329.26275004 Ry
     Harris-Foulkes estimate   =    -329.26274952 Ry
     estimated scf accuracy    <       0.00000024 Ry

     total magnetization       =     2.08 Bohr mag/cell
     absolute magnetization    =     2.19 Bohr mag/cell

     iteration # 12     ecut=    50.00 Ry     beta=0.70
     Davidson diagonalization with overlap
     ethr =  1.47E-09,  avg # of iterations =  2.1

     negative rho (up, down):  0.000E+00 1.452E-04

     Magnetic moment per site:
     atom:    1    charge:   14.4132    magn:    2.1266    constr:    0.0000

     total cpu time spent up to now is       25.0 secs

     total energy              =    -329.26274990 Ry
     Harris-Foulkes estimate   =    -329.26275008 Ry
     estimated scf accuracy    <       0.00000035 Ry

     total magnetization       =     2.08 Bohr mag/cell
     absolute magnetization    =     2.19 Bohr mag/cell

     iteration # 13     ecut=    50.00 Ry     beta=0.70
     Davidson diagonalization with overlap
     ethr =  1.47E-09,  avg # of iterations =  1.0

     negative rho (up, down):  0.000E+00 1.439E-04

     Magnetic moment per site:
     atom:    1    charge:   14.4131    magn:    2.1238    constr:    0.0000

     total cpu time spent up to now is       26.7 secs

     total energy              =    -329.26275036 Ry
     Harris-Foulkes estimate   =    -329.26274991 Ry
     estimated scf accuracy    <       0.00000045 Ry

     total magnetization       =     2.08 Bohr mag/cell
     absolute magnetization    =     2.19 Bohr mag/cell

     iteration # 14     ecut=    50.00 Ry     beta=0.70
     Davidson diagonalization with overlap
     ethr =  1.47E-09,  avg # of iterations =  1.9

     negative rho (up, down):  0.000E+00 1.434E-04

     Magnetic moment per site:
     atom:    1    charge:   14.4131    magn:    2.1223    constr:    0.0000

     total cpu time spent up to now is       28.4 secs

     total energy              =    -329.26275051 Ry
     Harris-Foulkes estimate   =    -329.26275054 Ry
     estimated scf accuracy    <       0.00000003 Ry

     total magnetization       =     2.08 Bohr mag/cell
     absolute magnetization    =     2.19 Bohr mag/cell

     iteration # 15     ecut=    50.00 Ry     beta=0.70
     Davidson diagonalization with overlap
     ethr =  1.95E-10,  avg # of iterations =  2.4

     negative rho (up, down):  0.000E+00 1.436E-04

     Magnetic moment per site:
     atom:    1    charge:   14.4131    magn:    2.1225    constr:    0.0000

     total cpu time spent up to now is       30.4 secs

     End of self-consistent calculation

 ------ SPIN UP ------------


          k = 0.0000 0.0000 0.0000 (   459 PWs)   bands (ev):

   -70.2131 -36.0265 -36.0265 -36.0265   9.4158  15.6779  15.6779  15.6779
    16.6215  16.6215  42.5081  42.5081

          k = 0.0000-0.1111 0.1111 (   463 PWs)   bands (ev):

   -70.2048 -36.0727 -36.0416 -36.0261   9.9160  15.5442  15.6510  15.9446
    16.5152  16.6331  39.6661  41.6510

          k = 0.0000-0.2222 0.2222 (   467 PWs)   bands (ev):

   -70.1836 -36.1881 -36.0806 -36.0265  11.2656  15.2160  15.4763  16.5038
    16.6624  16.6735  34.6770  39.3639

          k = 0.0000-0.3333 0.3333 (   468 PWs)   bands (ev):

   -70.1592 -36.3180 -36.1242 -36.0264  12.6523  14.8597  15.8501  16.7352
    16.7399  17.5712  29.6467  37.2740

          k = 0.0000-0.4444 0.4444 (   470 PWs)   bands (ev):

   -70.1434 -36.4012 -36.1526 -36.0267  12.9804  14.6359  16.7253  16.7956
    17.8573  18.2351  25.7189  36.1033

          k =-0.1111-0.1111 0.2222 (   463 PWs)   bands (ev):

   -70.1899 -36.1518 -36.0588 -36.0372  10.8556  15.3821  15.4157  16.4023
    16.4999  16.7085  36.9765  38.1865

          k =-0.1111-0.2222 0.3333 (   467 PWs)   bands (ev):

   -70.1672 -36.2646 -36.1054 -36.0422  12.3611  15.0138  15.2490  16.4921
    16.8173  17.4801  32.3233  35.6908

          k =-0.1111-0.3333 0.4444 (   471 PWs)   bands (ev):

   -70.1472 -36.3606 -36.1513 -36.0435  13.1893  14.7448  15.8373  16.7243
    17.0774  18.7823  27.6286  34.2318

          k =-0.1111 0.5556-0.4444 (   465 PWs)   bands (ev):

   -70.1390 -36.3971 -36.1695 -36.0431  13.2292  14.6474  16.2671  16.7450
    17.5141  19.9981  25.0575  33.7110

          k =-0.2222-0.2222 0.4444 (   469 PWs)   bands (ev):

   -70.1486 -36.3278 -36.1560 -36.0612  13.5490  14.6564  15.2041  16.5903
    16.9950  19.0367  30.2341  31.0144

          k =-0.2222 0.6667-0.4444 (   472 PWs)   bands (ev):

   -70.1365 -36.3529 -36.2114 -36.0679  13.8498  14.6408  15.3427  16.7790
    17.2040  21.3431  26.2563  29.6778

          k =-0.3333 0.6667-0.3333 (   475 PWs)   bands (ev):

   -70.1324 -36.2934 -36.2934 -36.0761  14.2979  14.7596  14.7596  17.0357
    17.0357  24.5230  24.5230  27.0358

          k = 0.0000 0.0000 0.2222 (   466 PWs)   bands (ev):

   -70.1968 -36.0849 -36.0573 -36.0573  10.3974  15.6909  15.6909  15.9465
    16.1943  16.7888  38.8447  40.8432

          k = 0.0000-0.1111 0.3333 (   467 PWs)   bands (ev):

   -70.1761 -36.1863 -36.0971 -36.0638  11.6824  15.4361  15.4680  16.1374
    16.5987  16.9630  34.9952  38.3276

          k = 0.0000-0.2222 0.4444 (   468 PWs)   bands (ev):

   -70.1525 -36.3098 -36.1412 -36.0618  12.9762  15.1478  15.2167  16.5288
    17.5084  17.5197  29.9772  36.7761

          k = 0.0000-0.3333 0.5556 (   466 PWs)   bands (ev):

   -70.1369 -36.3893 -36.1701 -36.0595  13.2506  14.9430  15.5760  16.5920
    18.2006  19.2982  25.8803  35.5287

          k =-0.1111-0.1111 0.4444 (   464 PWs)   bands (ev):

   -70.1544 -36.2668 -36.1428 -36.0859  12.9371  14.8960  15.5514  16.2212
    17.1004  17.6828  32.6956  33.5249

          k =-0.1111-0.2222 0.5556 (   463 PWs)   bands (ev):

   -70.1355 -36.3439 -36.1930 -36.0879  13.6506  14.6573  15.3596  16.5520
    17.5934  19.5898  28.2000  31.6941

          k =-0.1111 0.6667-0.3333 (   465 PWs)   bands (ev):

   -70.1281 -36.3748 -36.2137 -36.0877  13.6400  14.9480  15.0853  16.6300
    17.9352  21.5680  25.2354  31.1266

          k =-0.2222 0.2222 0.2222 (   471 PWs)   bands (ev):

   -70.1731 -36.2477 -36.0629 -36.0629  12.1053  15.0187  15.0187  16.6341
    16.6341  17.5140  34.8033  34.8033

          k =-0.2222 0.7778-0.3333 (   469 PWs)   bands (ev):

   -70.1248 -36.3373 -36.2665 -36.0959  14.2571  14.2629  15.0293  17.0035
    17.5207  22.6170  26.5169  27.8147

          k =-0.3333 0.3333 0.2222 (   477 PWs)   bands (ev):

   -70.1540 -36.3248 -36.1224 -36.0671  13.4624  14.7141  14.9926  16.7112
    16.7617  18.9356  30.2219  33.1886

          k = 0.5556-0.5556 0.2222 (   474 PWs)   bands (ev):

   -70.1412 -36.3617 -36.1736 -36.0694  13.6491  14.5553  15.9339  16.8099
    16.8125  20.8458  26.0823  32.3297

          k = 0.5556-0.6667 0.3333 (   473 PWs)   bands (ev):

   -70.1419 -36.3323 -36.1713 -36.0987  14.2123  14.5837  15.0273  16.7937
    16.8499  21.1044  28.4885  29.2951

          k = 0.4444-0.5556 0.3333 (   470 PWs)   bands (ev):

   -70.1370 -36.3106 -36.2203 -36.1060  14.2039  14.6034  15.2906  16.8536
    16.8788  23.4240  25.5241  28.5199

          k = 0.0000 0.0000 0.4444 (   458 PWs)   bands (ev):

   -70.1565 -36.2001 -36.1374 -36.1374  12.7002  15.1025  15.9605  15.9605
    16.6394  17.4624  35.5656  35.9702

          k = 0.0000-0.1111 0.5556 (   466 PWs)   bands (ev):

   -70.1352 -36.2898 -36.1839 -36.1484  13.5442  14.4807  15.9252  16.3469
    17.4057  18.7329  30.9284  33.7343

          k = 0.0000-0.2222 0.6667 (   466 PWs)   bands (ev):

   -70.1210 -36.3590 -36.2144 -36.1432  13.6408  14.3516  15.7949  16.4923
    18.1138  21.3242  26.4871  32.3867

          k =-0.1111-0.1111 0.6667 (   463 PWs)   bands (ev):

   -70.1181 -36.3254 -36.2425 -36.1643  13.8087  13.9627  15.9751  16.8625
    17.7547  21.1569  29.0993  29.6638

          k =-0.1111 0.7778-0.2222 (   463 PWs)   bands (ev):

   -70.1113 -36.3401 -36.2723 -36.1636  13.7078  13.9239  15.8774  17.1472
    17.9478  23.9151  25.7908  28.8264

          k = 0.5556-0.5556 0.4444 (   471 PWs)   bands (ev):

   -70.1373 -36.2783 -36.1809 -36.1809  14.6157  14.6157  14.9185  16.8369
    16.8369  23.9497  27.5924  27.5924

          k = 0.0000 0.0000 0.6667 (   458 PWs)   bands (ev):

   -70.1154 -36.2798 -36.2323 -36.2323  13.6068  13.8723  16.7894  16.7894
    17.4495  20.6004  31.2669  31.2669

          k = 0.0000-0.1111 0.7778 (   468 PWs)   bands (ev):

   -70.1030 -36.3248 -36.2642 -36.2379  13.4349  13.5111  16.9512  17.1691
    18.0174  23.5045  27.6155  29.7507

          k =-0.1111 0.8889-0.1111 (   472 PWs)   bands (ev):

   -70.0971 -36.3095 -36.3095 -36.2454  13.2977  13.2977  17.0558  17.8867
    17.8867  26.4702  26.4702  27.4494

          k = 0.0000 0.0000 0.8889 (   474 PWs)   bands (ev):

   -70.0914 -36.3049 -36.2967 -36.2967  13.0885  13.0909  17.8570  17.8570
    17.9901  25.9799  28.0918  28.0918

 ------ SPIN DOWN ----------


          k = 0.0000 0.0000 0.0000 (   459 PWs)   bands (ev):

   -67.7024 -33.5597 -33.5597 -33.5597   9.5846  17.2742  17.2742  17.2742
    19.6145  19.6145  42.2712  42.2712

          k = 0.0000-0.1111 0.1111 (   463 PWs)   bands (ev):

   -67.6934 -33.6109 -33.5762 -33.5595  10.0883  17.1176  17.2410  17.5613
    19.4500  19.6273  39.8275  41.6006

          k = 0.0000-0.2222 0.2222 (   467 PWs)   bands (ev):

   -67.6704 -33.7385 -33.6188 -33.5598  11.4808  16.7363  17.0785  18.3385
    19.2332  19.6782  35.2115  39.4889

          k = 0.0000-0.3333 0.3333 (   468 PWs)   bands (ev):

   -67.6440 -33.8820 -33.6667 -33.5597  13.2175  16.3261  17.0982  19.2568
    19.3348  19.7703  30.4500  37.3859

          k = 0.0000-0.4444 0.4444 (   470 PWs)   bands (ev):

   -67.6268 -33.9739 -33.6976 -33.5600  14.1080  16.0703  18.1076  19.3556
    19.8521  20.0742  26.8595  36.1737

          k =-0.1111-0.1111 0.2222 (   463 PWs)   bands (ev):

   -67.6773 -33.6984 -33.5952 -33.5716  11.0452  16.9252  17.0156  18.1470
    19.2173  19.6993  37.3510  38.5084

          k =-0.1111-0.2222 0.3333 (   467 PWs)   bands (ev):

   -67.6527 -33.8230 -33.6462 -33.5771  12.6874  16.5309  16.7773  19.0994
    19.1472  19.8280  32.9710  36.0978

          k =-0.1111-0.3333 0.4444 (   471 PWs)   bands (ev):

   -67.6309 -33.9289 -33.6965 -33.5784  14.1127  16.1899  17.0578  19.2434
    19.8081  20.4260  28.5452  34.6352

          k =-0.1111 0.5556-0.4444 (   465 PWs)   bands (ev):

   -67.6220 -33.9694 -33.7166 -33.5781  14.4529  16.0666  17.6553  19.3302
    19.9065  21.2234  26.2655  34.1014

          k =-0.2222-0.2222 0.4444 (   469 PWs)   bands (ev):

   -67.6325 -33.8926 -33.7023 -33.5978  14.2280  16.2579  16.4967  19.1221
    19.7594  20.7077  30.9857  31.6095

          k =-0.2222 0.6667-0.4444 (   472 PWs)   bands (ev):

   -67.6193 -33.9202 -33.7632 -33.6050  15.0610  16.0938  16.6731  19.3041
    19.7673  22.5954  27.2246  30.3188

          k =-0.3333 0.6667-0.3333 (   475 PWs)   bands (ev):

   -67.6148 -33.8542 -33.8542 -33.6139  15.5716  16.2094  16.2094  19.5398
    19.5398  25.5155  25.5155  27.8369

          k = 0.0000 0.0000 0.2222 (   466 PWs)   bands (ev):

   -67.6847 -33.6247 -33.5934 -33.5934  10.5779  17.2610  17.2610  17.5663
    19.0418  19.8166  39.0592  41.0350

          k = 0.0000-0.1111 0.3333 (   467 PWs)   bands (ev):

   -67.6623 -33.7366 -33.6370 -33.6007  11.9264  17.0000  17.1707  18.2680
    18.6254  19.9654  35.5470  38.6477

          k = 0.0000-0.2222 0.4444 (   468 PWs)   bands (ev):

   -67.6367 -33.8728 -33.6854 -33.5986  13.6031  16.6318  16.9459  18.7669
    19.2768  20.1770  30.7700  36.9298

          k = 0.0000-0.3333 0.5556 (   466 PWs)   bands (ev):

   -67.6199 -33.9605 -33.7170 -33.5962  14.4765  16.3978  17.2667  18.9877
    20.0360  20.9461  26.9813  35.9771

          k =-0.1111-0.1111 0.4444 (   464 PWs)   bands (ev):

   -67.6389 -33.8254 -33.6874 -33.6250  13.4127  16.8016  17.0268  18.3863
    19.0173  20.2524  33.4113  34.0580

          k =-0.1111-0.2222 0.5556 (   463 PWs)   bands (ev):

   -67.6183 -33.9103 -33.7426 -33.6274  14.7403  16.4222  16.8741  18.6963
    19.6634  21.3260  29.0736  32.3092

          k =-0.1111 0.6667-0.3333 (   465 PWs)   bands (ev):

   -67.6103 -33.9441 -33.7655 -33.6270  15.0843  16.5732  16.6745  18.8492
    19.9034  22.8039  26.3662  31.7343

          k =-0.2222 0.2222 0.2222 (   471 PWs)   bands (ev):

   -67.6591 -33.8041 -33.5997 -33.5997  12.3409  16.5470  16.5470  19.1737
    19.5175  19.5175  35.2506  35.2506

          k =-0.2222 0.7778-0.3333 (   469 PWs)   bands (ev):

   -67.6067 -33.9025 -33.8239 -33.6359  15.7037  16.0454  16.5694  19.0612
    19.5848  23.8473  27.4981  28.5382

          k =-0.3333 0.3333 0.2222 (   477 PWs)   bands (ev):

   -67.6382 -33.8891 -33.6652 -33.6044  14.0037  16.1440  16.3337  19.4875
    19.7476  20.4943  30.9163  33.6320

          k = 0.5556-0.5556 0.2222 (   474 PWs)   bands (ev):

   -67.6243 -33.9301 -33.7214 -33.6071  14.7950  15.9238  16.8812  19.5463
    19.8686  22.0200  27.0704  32.7477

          k = 0.5556-0.6667 0.3333 (   473 PWs)   bands (ev):

   -67.6251 -33.8976 -33.7194 -33.6392  15.2246  15.9567  16.1167  19.6344
    19.8365  22.3673  29.2166  29.9389

          k = 0.4444-0.5556 0.3333 (   470 PWs)   bands (ev):

   -67.6199 -33.8736 -33.7734 -33.6474  15.4232  15.8957  16.4007  19.7079
    19.8545  24.3370  26.4718  29.1800

          k = 0.0000 0.0000 0.4444 (   458 PWs)   bands (ev):

   -67.6413 -33.7526 -33.6814 -33.6814  13.1144  17.5025  17.5025  17.6079
    18.3227  20.2704  36.2385  36.4770

          k = 0.0000-0.1111 0.5556 (   466 PWs)   bands (ev):

   -67.6180 -33.8506 -33.7325 -33.6939  14.4821  16.6461  17.4601  18.1207
    19.1514  20.8789  31.6620  34.2474

          k = 0.0000-0.2222 0.6667 (   466 PWs)   bands (ev):

   -67.6026 -33.9265 -33.7658 -33.6883  15.2260  16.2266  17.3141  18.4252
    19.9400  22.6717  27.4469  32.8641

          k =-0.1111-0.1111 0.6667 (   463 PWs)   bands (ev):

   -67.5995 -33.8893 -33.7970 -33.7114  15.3188  16.0227  17.5418  18.5941
    19.5924  22.5660  29.9190  30.2621

          k =-0.1111 0.7778-0.2222 (   463 PWs)   bands (ev):

   -67.5921 -33.9051 -33.8300 -33.7106  15.5942  15.8039  17.3768  18.9414
    19.7897  24.9509  26.7277  29.4727

          k = 0.5556-0.5556 0.4444 (   471 PWs)   bands (ev):

   -67.6201 -33.8379 -33.7301 -33.7301  15.8452  15.8452  15.9605  19.8809
    19.8809  24.8680  28.2834  28.2834

          k = 0.0000 0.0000 0.6667 (   458 PWs)   bands (ev):

   -67.5965 -33.8397 -33.7858 -33.7858  15.1094  16.0505  18.3864  18.3864
    19.2117  22.0762  31.7453  31.7453

          k = 0.0000-0.1111 0.7778 (   468 PWs)   bands (ev):

   -67.5829 -33.8880 -33.8208 -33.7921  15.3103  15.5165  18.5875  18.8386
    19.8339  24.4654  28.2819  30.1624

          k =-0.1111 0.8889-0.1111 (   472 PWs)   bands (ev):

   -67.5765 -33.8707 -33.8707 -33.8003  15.2670  15.2670  18.6847  19.6762
    19.6762  27.1468  27.1468  27.9397

          k = 0.0000 0.0000 0.8889 (   474 PWs)   bands (ev):

   -67.5703 -33.8655 -33.8565 -33.8565  15.0420  15.0889  19.6302  19.6302
    19.8079  26.5162  28.3917  28.3917

     the Fermi energy is    17.7818 ev

!    total energy              =    -329.26275061 Ry
     Harris-Foulkes estimate   =    -329.26275057 Ry
     estimated scf accuracy    <          5.0E-09 Ry

     total all-electron energy =     -2545.559286 Ry

     The total energy is the sum of the following terms:

     one-electron contribution =    -111.51291369 Ry
     hartree contribution      =      66.05398158 Ry
     xc contribution           =     -34.80802501 Ry
     ewald contribution        =    -172.84670930 Ry
     one-center paw contrib.   =     -76.15058841 Ry
     smearing contrib. (-TS)   =       0.00150421 Ry

     total magnetization       =     2.08 Bohr mag/cell
     absolute magnetization    =     2.19 Bohr mag/cell

     convergence has been achieved in  15 iterations

     Forces acting on atoms (Ry/au):


     negative rho (up, down):  0.000E+00 1.436E-04
     atom    1 type  1   force =     0.00000000    0.00000000    0.00000000

     Total force =     0.000000     Total SCF correction =     0.000000


     entering subroutine stress ...


     negative rho (up, down):  0.000E+00 1.436E-04
          total   stress  (Ry/bohr**3)                   (kbar)     P= -133.71
  -0.00090895   0.00000000  -0.00000000       -133.71      0.00     -0.00
  -0.00000000  -0.00090895   0.00000000         -0.00   -133.71      0.00
  -0.00000000   0.00000000  -0.00090895         -0.00      0.00   -133.71


     Writing output data file Fe_bcc.save

     init_run     :      1.55s CPU      1.58s WALL (       1 calls)
     electrons    :     28.07s CPU     28.41s WALL (       1 calls)
     forces       :      0.13s CPU      0.14s WALL (       1 calls)
     stress       :      0.48s CPU      0.50s WALL (       1 calls)

     Called by init_run:
     wfcinit      :      0.53s CPU      0.53s WALL (       1 calls)
     potinit      :      0.51s CPU      0.52s WALL (       1 calls)

     Called by electrons:
     c_bands      :     17.27s CPU     17.41s WALL (      15 calls)
     sum_band     :      3.22s CPU      3.27s WALL (      15 calls)
     v_of_rho     :      0.35s CPU      0.36s WALL (      16 calls)
     newd         :      0.24s CPU      0.25s WALL (      16 calls)
     mix_rho      :      0.04s CPU      0.05s WALL (      15 calls)

     Called by c_bands:
     init_us_2    :      0.38s CPU      0.39s WALL (    2310 calls)
     cegterg      :     16.51s CPU     16.64s WALL (    1050 calls)

     Called by *egterg:
     h_psi        :     14.16s CPU     14.32s WALL (    3252 calls)
     s_psi        :      0.37s CPU      0.30s WALL (    3252 calls)
     g_psi        :      0.08s CPU      0.08s WALL (    2132 calls)
     cdiaghg      :      0.90s CPU      0.92s WALL (    3182 calls)

     Called by h_psi:
     add_vuspsi   :      0.38s CPU      0.33s WALL (    3252 calls)

     General routines
     calbec       :      0.41s CPU      0.42s WALL (    4442 calls)
     fft          :      0.18s CPU      0.18s WALL (     530 calls)
     ffts         :      0.02s CPU      0.02s WALL (      62 calls)
     fftw         :     14.45s CPU     14.63s WALL (   73050 calls)
     interpolate  :      0.05s CPU      0.05s WALL (      62 calls)
     davcio       :      0.00s CPU      0.00s WALL (      70 calls)


     PAW routines
     PAW_pot      :      7.42s CPU      7.57s WALL (      16 calls)
     PAW_symme    :      0.02s CPU      0.02s WALL (      31 calls)

     PWSCF        :    30.73s CPU        31.23s WALL


   This run was terminated on:  14:44:41  12May2015            

=------------------------------------------------------------------------------=
   JOB DONE.
=------------------------------------------------------------------------------=
