
     Program PWSCF v.5.1.2 starts on 12May2015 at 14:42:13 

     This program is part of the open-source Quantum ESPRESSO suite
     for quantum simulation of materials; please cite
         "P. Giannozzi et al., J. Phys.:Condens. Matter 21 395502 (2009);
          URL http://www.quantum-espresso.org", 
     in publications or presentations arising from this work. More details at
     http://www.quantum-espresso.org/quote

     Serial version
     Reading input from Fe_bcc_5.35_9.pw.in

     Current dimensions of program PWSCF are:
     Max number of different atomic species (ntypx) = 10
     Max number of k-points (npk) =  40000
     Max angular momentum in pseudopotentials (lmaxx) =  3
               file Fe.pbe-spn-kjpaw_psl.0.2.1.UPF: wavefunction(s)  3D renormalized

     G-vector sticks info
     --------------------
     sticks:   dense  smooth     PW     G-vecs:    dense   smooth      PW
     Sum         399     321    103                 5089     3589     683

     Generating pointlists ...
     new r_m :   0.3572 (alat units)  1.9112 (a.u.) for type    1


     bravais-lattice index     =            3
     lattice parameter (alat)  =       5.3500  a.u.
     unit-cell volume          =      76.5652 (a.u.)^3
     number of atoms/cell      =            1
     number of atomic types    =            1
     number of electrons       =        16.00
     number of Kohn-Sham states=           12
     kinetic-energy cutoff     =      50.0000  Ry
     charge density cutoff     =     250.0000  Ry
     convergence threshold     =      1.0E-08
     mixing beta               =       0.7000
     number of iterations used =            8  plain     mixing
     Exchange-correlation      =  SLA  PW   PBX  PBC ( 1  4  3  4 0 0)

     celldm(1)=   5.350000  celldm(2)=   0.000000  celldm(3)=   0.000000
     celldm(4)=   0.000000  celldm(5)=   0.000000  celldm(6)=   0.000000

     crystal axes: (cart. coord. in units of alat)
               a(1) = (   0.500000   0.500000   0.500000 )  
               a(2) = (  -0.500000   0.500000   0.500000 )  
               a(3) = (  -0.500000  -0.500000   0.500000 )  

     reciprocal axes: (cart. coord. in units 2 pi/alat)
               b(1) = (  1.000000  0.000000  1.000000 )  
               b(2) = ( -1.000000  1.000000  0.000000 )  
               b(3) = (  0.000000 -1.000000  1.000000 )  


     PseudoPot. # 1 for Fe read from file:
     ./Fe.pbe-spn-kjpaw_psl.0.2.1.UPF
     MD5 check sum: a0a08122d52b112de96d1da1d7dd020f
     Pseudo is Projector augmented-wave + core cor, Zval = 16.0
     Generated using "atomic" code by A. Dal Corso  v.5.0.2 svn rev. 9415
     Shape of augmentation charge: PSQ
     Using radial grid of 1191 points,  6 beta functions with: 
                l(1) =   0
                l(2) =   0
                l(3) =   1
                l(4) =   1
                l(5) =   2
                l(6) =   2
     Q(r) pseudized with 0 coefficients 


     atomic species   valence    mass     pseudopotential
        Fe            16.00    55.85000     Fe( 1.00)

     Starting magnetic structure 
     atomic species   magnetization
        Fe           0.700

     48 Sym. Ops., with inversion, found



   Cartesian axes

     site n.     atom                  positions (alat units)
         1           Fe  tau(   1) = (   0.0000000   0.0000000   0.0000000  )

     number of k points=    70  Marzari-Vanderbilt smearing, width (Ry)=  0.0250
                       cart. coord. in units 2pi/alat
        k(    1) = (   0.0000000   0.0000000   0.0000000), wk =   0.0013717
        k(    2) = (   0.0000000  -0.1111111   0.1111111), wk =   0.0164609
        k(    3) = (   0.0000000  -0.2222222   0.2222222), wk =   0.0164609
        k(    4) = (   0.0000000  -0.3333333   0.3333333), wk =   0.0164609
        k(    5) = (   0.0000000  -0.4444444   0.4444444), wk =   0.0164609
        k(    6) = (  -0.1111111  -0.1111111   0.2222222), wk =   0.0329218
        k(    7) = (  -0.1111111  -0.2222222   0.3333333), wk =   0.0658436
        k(    8) = (  -0.1111111  -0.3333333   0.4444444), wk =   0.0658436
        k(    9) = (  -0.1111111   0.5555556  -0.4444444), wk =   0.0329218
        k(   10) = (  -0.2222222  -0.2222222   0.4444444), wk =   0.0329218
        k(   11) = (  -0.2222222   0.6666667  -0.4444444), wk =   0.0658436
        k(   12) = (  -0.3333333   0.6666667  -0.3333333), wk =   0.0109739
        k(   13) = (   0.0000000   0.0000000   0.2222222), wk =   0.0082305
        k(   14) = (   0.0000000  -0.1111111   0.3333333), wk =   0.0329218
        k(   15) = (   0.0000000  -0.2222222   0.4444444), wk =   0.0329218
        k(   16) = (   0.0000000  -0.3333333   0.5555556), wk =   0.0329218
        k(   17) = (  -0.1111111  -0.1111111   0.4444444), wk =   0.0329218
        k(   18) = (  -0.1111111  -0.2222222   0.5555556), wk =   0.0658436
        k(   19) = (  -0.1111111   0.6666667  -0.3333333), wk =   0.0329218
        k(   20) = (  -0.2222222   0.2222222   0.2222222), wk =   0.0109739
        k(   21) = (  -0.2222222   0.7777778  -0.3333333), wk =   0.0329218
        k(   22) = (  -0.3333333   0.3333333   0.2222222), wk =   0.0329218
        k(   23) = (   0.5555556  -0.5555556   0.2222222), wk =   0.0329218
        k(   24) = (   0.5555556  -0.6666667   0.3333333), wk =   0.0329218
        k(   25) = (   0.4444444  -0.5555556   0.3333333), wk =   0.0329218
        k(   26) = (   0.0000000   0.0000000   0.4444444), wk =   0.0082305
        k(   27) = (   0.0000000  -0.1111111   0.5555556), wk =   0.0329218
        k(   28) = (   0.0000000  -0.2222222   0.6666667), wk =   0.0329218
        k(   29) = (  -0.1111111  -0.1111111   0.6666667), wk =   0.0329218
        k(   30) = (  -0.1111111   0.7777778  -0.2222222), wk =   0.0329218
        k(   31) = (   0.5555556  -0.5555556   0.4444444), wk =   0.0109739
        k(   32) = (   0.0000000   0.0000000   0.6666667), wk =   0.0082305
        k(   33) = (   0.0000000  -0.1111111   0.7777778), wk =   0.0329218
        k(   34) = (  -0.1111111   0.8888889  -0.1111111), wk =   0.0109739
        k(   35) = (   0.0000000   0.0000000   0.8888889), wk =   0.0082305
        k(   36) = (   0.0000000   0.0000000   0.0000000), wk =   0.0013717
        k(   37) = (   0.0000000  -0.1111111   0.1111111), wk =   0.0164609
        k(   38) = (   0.0000000  -0.2222222   0.2222222), wk =   0.0164609
        k(   39) = (   0.0000000  -0.3333333   0.3333333), wk =   0.0164609
        k(   40) = (   0.0000000  -0.4444444   0.4444444), wk =   0.0164609
        k(   41) = (  -0.1111111  -0.1111111   0.2222222), wk =   0.0329218
        k(   42) = (  -0.1111111  -0.2222222   0.3333333), wk =   0.0658436
        k(   43) = (  -0.1111111  -0.3333333   0.4444444), wk =   0.0658436
        k(   44) = (  -0.1111111   0.5555556  -0.4444444), wk =   0.0329218
        k(   45) = (  -0.2222222  -0.2222222   0.4444444), wk =   0.0329218
        k(   46) = (  -0.2222222   0.6666667  -0.4444444), wk =   0.0658436
        k(   47) = (  -0.3333333   0.6666667  -0.3333333), wk =   0.0109739
        k(   48) = (   0.0000000   0.0000000   0.2222222), wk =   0.0082305
        k(   49) = (   0.0000000  -0.1111111   0.3333333), wk =   0.0329218
        k(   50) = (   0.0000000  -0.2222222   0.4444444), wk =   0.0329218
        k(   51) = (   0.0000000  -0.3333333   0.5555556), wk =   0.0329218
        k(   52) = (  -0.1111111  -0.1111111   0.4444444), wk =   0.0329218
        k(   53) = (  -0.1111111  -0.2222222   0.5555556), wk =   0.0658436
        k(   54) = (  -0.1111111   0.6666667  -0.3333333), wk =   0.0329218
        k(   55) = (  -0.2222222   0.2222222   0.2222222), wk =   0.0109739
        k(   56) = (  -0.2222222   0.7777778  -0.3333333), wk =   0.0329218
        k(   57) = (  -0.3333333   0.3333333   0.2222222), wk =   0.0329218
        k(   58) = (   0.5555556  -0.5555556   0.2222222), wk =   0.0329218
        k(   59) = (   0.5555556  -0.6666667   0.3333333), wk =   0.0329218
        k(   60) = (   0.4444444  -0.5555556   0.3333333), wk =   0.0329218
        k(   61) = (   0.0000000   0.0000000   0.4444444), wk =   0.0082305
        k(   62) = (   0.0000000  -0.1111111   0.5555556), wk =   0.0329218
        k(   63) = (   0.0000000  -0.2222222   0.6666667), wk =   0.0329218
        k(   64) = (  -0.1111111  -0.1111111   0.6666667), wk =   0.0329218
        k(   65) = (  -0.1111111   0.7777778  -0.2222222), wk =   0.0329218
        k(   66) = (   0.5555556  -0.5555556   0.4444444), wk =   0.0109739
        k(   67) = (   0.0000000   0.0000000   0.6666667), wk =   0.0082305
        k(   68) = (   0.0000000  -0.1111111   0.7777778), wk =   0.0329218
        k(   69) = (  -0.1111111   0.8888889  -0.1111111), wk =   0.0109739
        k(   70) = (   0.0000000   0.0000000   0.8888889), wk =   0.0082305

     Dense  grid:     5089 G-vectors     FFT dimensions: (  24,  24,  24)

     Smooth grid:     3589 G-vectors     FFT dimensions: (  24,  24,  24)

     Largest allocated arrays     est. size (Mb)     dimensions
        Kohn-Sham Wavefunctions         0.09 Mb     (     470,   12)
        NL pseudopotentials             0.13 Mb     (     470,   18)
        Each V/rho on FFT grid          0.42 Mb     (   13824,   2)
        Each G-vector array             0.04 Mb     (    5089)
        G-vector shells                 0.00 Mb     (      85)
     Largest temporary arrays     est. size (Mb)     dimensions
        Auxiliary wavefunctions         0.34 Mb     (     470,   48)
        Each subspace H/S matrix        0.04 Mb     (      48,   48)
        Each <psi_i|beta_j> matrix      0.00 Mb     (      18,   12)
        Arrays for rho mixing           1.69 Mb     (   13824,    8)

     Check: negative/imaginary core charge=   -0.000420    0.000000

     Initial potential from superposition of free atoms

     starting charge   15.99956, renormalised to   16.00000
     Starting wfc are   13 randomized atomic wfcs

     total cpu time spent up to now is        2.1 secs

     Self-consistent Calculation

     iteration #  1     ecut=    50.00 Ry     beta=0.70
     Davidson diagonalization with overlap
     ethr =  1.00E-02,  avg # of iterations =  3.2

     negative rho (up, down):  0.000E+00 3.153E-04

     Magnetic moment per site:
     atom:    1    charge:   14.2709    magn:    5.6530    constr:    0.0000

     total cpu time spent up to now is        4.1 secs

     total energy              =    -328.98997050 Ry
     Harris-Foulkes estimate   =    -328.04751350 Ry
     estimated scf accuracy    <       1.52823023 Ry

     total magnetization       =     3.79 Bohr mag/cell
     absolute magnetization    =     3.82 Bohr mag/cell

     iteration #  2     ecut=    50.00 Ry     beta=0.70
     Davidson diagonalization with overlap
     ethr =  9.55E-03,  avg # of iterations =  1.2

     negative rho (up, down):  0.000E+00 3.378E-04

     Magnetic moment per site:
     atom:    1    charge:   14.4927    magn:    3.3983    constr:    0.0000

     total cpu time spent up to now is        6.0 secs

     total energy              =    -329.16886889 Ry
     Harris-Foulkes estimate   =    -329.09768095 Ry
     estimated scf accuracy    <       0.33426999 Ry

     total magnetization       =     3.02 Bohr mag/cell
     absolute magnetization    =     3.16 Bohr mag/cell

     iteration #  3     ecut=    50.00 Ry     beta=0.70
     Davidson diagonalization with overlap
     ethr =  2.09E-03,  avg # of iterations =  2.1

     negative rho (up, down):  0.000E+00 3.364E-04

     Magnetic moment per site:
     atom:    1    charge:   14.3769    magn:    2.4431    constr:    0.0000

     total cpu time spent up to now is        7.9 secs

     total energy              =    -329.18670758 Ry
     Harris-Foulkes estimate   =    -329.34072413 Ry
     estimated scf accuracy    <       0.44649209 Ry

     total magnetization       =     2.43 Bohr mag/cell
     absolute magnetization    =     2.57 Bohr mag/cell

     iteration #  4     ecut=    50.00 Ry     beta=0.70
     Davidson diagonalization with overlap
     ethr =  2.09E-03,  avg # of iterations =  2.1

     negative rho (up, down):  0.000E+00 1.788E-04

     Magnetic moment per site:
     atom:    1    charge:   14.4068    magn:    2.2091    constr:    0.0000

     total cpu time spent up to now is        9.8 secs

     total energy              =    -329.25865931 Ry
     Harris-Foulkes estimate   =    -329.25769933 Ry
     estimated scf accuracy    <       0.00222633 Ry

     total magnetization       =     2.27 Bohr mag/cell
     absolute magnetization    =     2.43 Bohr mag/cell

     iteration #  5     ecut=    50.00 Ry     beta=0.70
     Davidson diagonalization with overlap
     ethr =  1.39E-05,  avg # of iterations =  3.3

     negative rho (up, down):  0.000E+00 1.634E-04

     Magnetic moment per site:
     atom:    1    charge:   14.3959    magn:    2.1674    constr:    0.0000

     total cpu time spent up to now is       12.1 secs

     total energy              =    -329.26242249 Ry
     Harris-Foulkes estimate   =    -329.26212346 Ry
     estimated scf accuracy    <       0.00050817 Ry

     total magnetization       =     2.12 Bohr mag/cell
     absolute magnetization    =     2.25 Bohr mag/cell

     iteration #  6     ecut=    50.00 Ry     beta=0.70
     Davidson diagonalization with overlap
     ethr =  3.18E-06,  avg # of iterations =  1.7

     negative rho (up, down):  0.000E+00 9.921E-05

     Magnetic moment per site:
     atom:    1    charge:   14.3908    magn:    2.0565    constr:    0.0000

     total cpu time spent up to now is       14.0 secs

     total energy              =    -329.26237308 Ry
     Harris-Foulkes estimate   =    -329.26261703 Ry
     estimated scf accuracy    <       0.00030480 Ry

     total magnetization       =     2.09 Bohr mag/cell
     absolute magnetization    =     2.21 Bohr mag/cell

     iteration #  7     ecut=    50.00 Ry     beta=0.70
     Davidson diagonalization with overlap
     ethr =  1.90E-06,  avg # of iterations =  1.8

     negative rho (up, down):  0.000E+00 1.366E-04

     Magnetic moment per site:
     atom:    1    charge:   14.3951    magn:    2.1329    constr:    0.0000

     total cpu time spent up to now is       15.9 secs

     total energy              =    -329.26282735 Ry
     Harris-Foulkes estimate   =    -329.26271649 Ry
     estimated scf accuracy    <       0.00009643 Ry

     total magnetization       =     2.05 Bohr mag/cell
     absolute magnetization    =     2.16 Bohr mag/cell

     iteration #  8     ecut=    50.00 Ry     beta=0.70
     Davidson diagonalization with overlap
     ethr =  6.03E-07,  avg # of iterations =  2.0

     negative rho (up, down):  0.000E+00 1.332E-04

     Magnetic moment per site:
     atom:    1    charge:   14.3958    magn:    2.1206    constr:    0.0000

     total cpu time spent up to now is       17.7 secs

     total energy              =    -329.26290062 Ry
     Harris-Foulkes estimate   =    -329.26288247 Ry
     estimated scf accuracy    <       0.00002819 Ry

     total magnetization       =     2.07 Bohr mag/cell
     absolute magnetization    =     2.18 Bohr mag/cell

     iteration #  9     ecut=    50.00 Ry     beta=0.70
     Davidson diagonalization with overlap
     ethr =  1.76E-07,  avg # of iterations =  1.2

     negative rho (up, down):  0.000E+00 1.287E-04

     Magnetic moment per site:
     atom:    1    charge:   14.3950    magn:    2.1069    constr:    0.0000

     total cpu time spent up to now is       19.3 secs

     total energy              =    -329.26290956 Ry
     Harris-Foulkes estimate   =    -329.26290539 Ry
     estimated scf accuracy    <       0.00001048 Ry

     total magnetization       =     2.07 Bohr mag/cell
     absolute magnetization    =     2.18 Bohr mag/cell

     iteration # 10     ecut=    50.00 Ry     beta=0.70
     Davidson diagonalization with overlap
     ethr =  6.55E-08,  avg # of iterations =  1.5

     negative rho (up, down):  0.000E+00 1.274E-04

     Magnetic moment per site:
     atom:    1    charge:   14.3948    magn:    2.1030    constr:    0.0000

     total cpu time spent up to now is       21.0 secs

     total energy              =    -329.26291322 Ry
     Harris-Foulkes estimate   =    -329.26291250 Ry
     estimated scf accuracy    <       0.00000067 Ry

     total magnetization       =     2.06 Bohr mag/cell
     absolute magnetization    =     2.17 Bohr mag/cell

     iteration # 11     ecut=    50.00 Ry     beta=0.70
     Davidson diagonalization with overlap
     ethr =  4.21E-09,  avg # of iterations =  2.6

     negative rho (up, down):  0.000E+00 1.273E-04

     Magnetic moment per site:
     atom:    1    charge:   14.3948    magn:    2.1030    constr:    0.0000

     total cpu time spent up to now is       22.8 secs

     total energy              =    -329.26291380 Ry
     Harris-Foulkes estimate   =    -329.26291361 Ry
     estimated scf accuracy    <       0.00000005 Ry

     total magnetization       =     2.06 Bohr mag/cell
     absolute magnetization    =     2.17 Bohr mag/cell

     iteration # 12     ecut=    50.00 Ry     beta=0.70
     Davidson diagonalization with overlap
     ethr =  2.89E-10,  avg # of iterations =  2.1

     negative rho (up, down):  0.000E+00 1.268E-04

     Magnetic moment per site:
     atom:    1    charge:   14.3948    magn:    2.1018    constr:    0.0000

     total cpu time spent up to now is       24.6 secs

     total energy              =    -329.26291383 Ry
     Harris-Foulkes estimate   =    -329.26291381 Ry
     estimated scf accuracy    <       0.00000005 Ry

     total magnetization       =     2.06 Bohr mag/cell
     absolute magnetization    =     2.17 Bohr mag/cell

     iteration # 13     ecut=    50.00 Ry     beta=0.70
     Davidson diagonalization with overlap
     ethr =  2.84E-10,  avg # of iterations =  1.8

     negative rho (up, down):  0.000E+00 1.269E-04

     Magnetic moment per site:
     atom:    1    charge:   14.3948    magn:    2.1018    constr:    0.0000

     total cpu time spent up to now is       26.3 secs

     End of self-consistent calculation

 ------ SPIN UP ------------


          k = 0.0000 0.0000 0.0000 (   459 PWs)   bands (ev):

   -69.7365 -35.5331 -35.5331 -35.5331   9.7835  16.1301  16.1301  16.1301
    17.1287  17.1287  43.2250  43.2250

          k = 0.0000-0.1111 0.1111 (   451 PWs)   bands (ev):

   -69.7269 -35.5819 -35.5489 -35.5321  10.2926  15.9914  16.1025  16.4057
    17.0173  17.1407  40.4144  42.3861

          k = 0.0000-0.2222 0.2222 (   455 PWs)   bands (ev):

   -69.7035 -35.7067 -35.5907 -35.5323  11.6635  15.6515  15.9262  17.0004
    17.1474  17.1828  35.4316  40.1054

          k = 0.0000-0.3333 0.3333 (   468 PWs)   bands (ev):

   -69.6772 -35.8475 -35.6382 -35.5329  13.0470  15.2827  16.3160  17.2335
    17.2522  18.0872  30.3650  37.9807

          k = 0.0000-0.4444 0.4444 (   454 PWs)   bands (ev):

   -69.6591 -35.9368 -35.6677 -35.5317  13.3629  15.0513  17.2306  17.3106
    18.3564  18.7746  26.4190  36.8148

          k =-0.1111-0.1111 0.2222 (   455 PWs)   bands (ev):

   -69.7106 -35.6681 -35.5672 -35.5444  11.2467  15.8237  15.8603  16.8976
    16.9795  17.2188  37.7180  38.9597

          k =-0.1111-0.2222 0.3333 (   454 PWs)   bands (ev):

   -69.6854 -35.7897 -35.6170 -35.5489  12.7671  15.4441  15.6911  16.9861
    17.3315  17.9925  33.0643  36.4475

          k =-0.1111-0.3333 0.4444 (   459 PWs)   bands (ev):

   -69.6634 -35.8930 -35.6667 -35.5501  13.5839  15.1646  16.3055  17.2262
    17.5925  19.3301  28.3356  34.9837

          k =-0.1111 0.5556-0.4444 (   459 PWs)   bands (ev):

   -69.6547 -35.9326 -35.6868 -35.5508  13.6151  15.0633  16.7524  17.2499
    18.0306  20.5529  25.7527  34.4324

          k =-0.2222-0.2222 0.4444 (   461 PWs)   bands (ev):

   -69.6651 -35.8577 -35.6722 -35.5698  13.9585  15.0797  15.6417  17.0865
    17.5129  19.5924  30.9353  31.7661

          k =-0.2222 0.6667-0.4444 (   464 PWs)   bands (ev):

   -69.6518 -35.8848 -35.7313 -35.5770  14.2524  15.0609  15.7911  17.2825
    17.7206  21.9341  26.9431  30.4031

          k =-0.3333 0.6667-0.3333 (   463 PWs)   bands (ev):

   -69.6472 -35.8201 -35.8201 -35.5855  14.7057  15.1911  15.1911  17.5465
    17.5465  25.1623  25.1623  27.7632

          k = 0.0000 0.0000 0.2222 (   454 PWs)   bands (ev):

   -69.7180 -35.5951 -35.5657 -35.5657  10.7838  16.1429  16.1429  16.4073
    16.6839  17.3028  39.5616  41.6392

          k = 0.0000-0.1111 0.3333 (   459 PWs)   bands (ev):

   -69.6954 -35.7053 -35.6084 -35.5725  12.0840  15.8876  15.9118  16.6142
    17.0813  17.4837  35.7393  39.0893

          k = 0.0000-0.2222 0.4444 (   458 PWs)   bands (ev):

   -69.6694 -35.8380 -35.6560 -35.5701  13.3787  15.5804  15.6675  17.0190
    18.0339  18.0390  30.7078  37.3332

          k = 0.0000-0.3333 0.5556 (   452 PWs)   bands (ev):

   -69.6522 -35.9238 -35.6862 -35.5682  13.6396  15.3688  16.0407  17.0886
    18.7388  19.8473  26.5796  36.3514

          k =-0.1111-0.1111 0.4444 (   457 PWs)   bands (ev):

   -69.6717 -35.7918 -35.6580 -35.5967  13.3499  15.3310  15.9987  16.6968
    17.6111  18.2140  33.4199  34.2988

          k =-0.1111-0.2222 0.5556 (   454 PWs)   bands (ev):

   -69.6508 -35.8749 -35.7114 -35.5990  14.0558  15.0869  15.8028  17.0409
    18.1160  20.1581  28.9050  32.4418

          k =-0.1111 0.6667-0.3333 (   456 PWs)   bands (ev):

   -69.6426 -35.9080 -35.7339 -35.5989  14.0374  15.3907  15.5172  17.1232
    18.4660  22.1563  25.9234  31.8636

          k =-0.2222 0.2222 0.2222 (   456 PWs)   bands (ev):

   -69.6919 -35.7710 -35.5710 -35.5710  12.5111  15.4493  15.4493  17.1394
    17.1394  18.0272  35.5424  35.5424

          k =-0.2222 0.7778-0.3333 (   457 PWs)   bands (ev):

   -69.6389 -35.8674 -35.7908 -35.6071  14.6740  14.6817  15.4624  17.5053
    18.0401  23.2360  27.1875  28.5387

          k =-0.3333 0.3333 0.2222 (   458 PWs)   bands (ev):

   -69.6705 -35.8536 -35.6349 -35.5757  13.8790  15.1336  15.4291  17.2172
    17.2739  19.4925  30.9465  33.9135

          k = 0.5556-0.5556 0.2222 (   464 PWs)   bands (ev):

   -69.6568 -35.8942 -35.6908 -35.5786  14.0475  14.9689  16.3949  17.3191
    17.3281  21.4297  26.7749  33.0402

          k = 0.5556-0.6667 0.3333 (   464 PWs)   bands (ev):

   -69.6576 -35.8626 -35.6888 -35.6098  14.6236  15.0019  15.4622  17.3038
    17.3654  21.6993  29.1683  30.0293

          k = 0.4444-0.5556 0.3333 (   459 PWs)   bands (ev):

   -69.6522 -35.8391 -35.7414 -35.6182  14.6119  15.0218  15.7323  17.3662
    17.3943  24.0397  26.2011  29.2323

          k = 0.0000 0.0000 0.4444 (   450 PWs)   bands (ev):

   -69.6740 -35.7208 -35.6518 -35.6518  13.1077  15.5497  16.4206  16.4206
    17.1230  17.9980  36.2790  36.7690

          k = 0.0000-0.1111 0.5556 (   450 PWs)   bands (ev):

   -69.6502 -35.8161 -35.7015 -35.6637  13.9588  14.9057  16.3840  16.8236
    17.9156  19.2966  31.6675  34.5166

          k = 0.0000-0.2222 0.6667 (   447 PWs)   bands (ev):

   -69.6345 -35.8910 -35.7338 -35.6574  14.0412  14.7750  16.2494  16.9770
    18.6489  21.9187  27.1827  33.1596

          k =-0.1111-0.1111 0.6667 (   455 PWs)   bands (ev):

   -69.6317 -35.8548 -35.7649 -35.6811  14.2171  14.3696  16.4363  17.3543
    18.2780  21.7513  29.7971  30.3876

          k =-0.1111 0.7778-0.2222 (   460 PWs)   bands (ev):

   -69.6245 -35.8706 -35.7973 -35.6805  14.1070  14.3312  16.3348  17.6493
    18.4772  24.5296  26.4618  29.5242

          k = 0.5556-0.5556 0.4444 (   462 PWs)   bands (ev):

   -69.6526 -35.8046 -35.6988 -35.6988  15.0341  15.0341  15.3472  17.3531
    17.3531  24.5806  28.2681  28.2681

          k = 0.0000 0.0000 0.6667 (   450 PWs)   bands (ev):

   -69.6288 -35.8061 -35.7540 -35.7540  14.0093  14.2761  17.2769  17.2769
    17.9608  21.1843  31.9930  31.9930

          k = 0.0000-0.1111 0.7778 (   460 PWs)   bands (ev):

   -69.6152 -35.8536 -35.7880 -35.7602  13.8258  13.9050  17.4445  17.6702
    18.5489  24.1240  28.2969  30.4578

          k =-0.1111 0.8889-0.1111 (   466 PWs)   bands (ev):

   -69.6087 -35.8369 -35.8369 -35.7680  13.6837  13.6837  17.5525  18.4134
    18.4134  27.1221  27.1221  28.1303

          k = 0.0000 0.0000 0.8889 (   470 PWs)   bands (ev):

   -69.6027 -35.8320 -35.8232 -35.8232  13.4670  13.4702  18.3824  18.3824
    18.5207  26.6173  28.7545  28.7545

 ------ SPIN DOWN ----------


          k = 0.0000 0.0000 0.0000 (   459 PWs)   bands (ev):

   -67.2480 -33.0860 -33.0860 -33.0860   9.9524  17.7180  17.7180  17.7180
    20.0928  20.0928  42.9937  42.9937

          k = 0.0000-0.1111 0.1111 (   451 PWs)   bands (ev):

   -67.2377 -33.1401 -33.1033 -33.0851  10.4653  17.5564  17.6836  18.0138
    19.9230  20.1061  40.5717  42.3323

          k = 0.0000-0.2222 0.2222 (   455 PWs)   bands (ev):

   -67.2125 -33.2778 -33.1490 -33.0852  11.8802  17.1628  17.5148  18.8147
    19.7031  20.1591  35.9642  40.2207

          k = 0.0000-0.3333 0.3333 (   468 PWs)   bands (ev):

   -67.1839 -33.4329 -33.2007 -33.0859  13.6178  16.7400  17.5414  19.7339
    19.8415  20.2551  31.1703  38.0827

          k = 0.0000-0.4444 0.4444 (   454 PWs)   bands (ev):

   -67.1643 -33.5316 -33.2331 -33.0848  14.4841  16.4767  18.6008  19.8386
    20.3404  20.6043  27.5581  36.8711

          k =-0.1111-0.1111 0.2222 (   455 PWs)   bands (ev):

   -67.2201 -33.2351 -33.1234 -33.0985  11.4371  17.3576  17.4497  18.6178
    19.6840  20.1815  38.0906  39.2744

          k =-0.1111-0.2222 0.3333 (   454 PWs)   bands (ev):

   -67.1929 -33.3693 -33.1779 -33.1037  13.0970  16.9508  17.2045  19.5725
    19.6437  20.3163  33.7121  36.8476

          k =-0.1111-0.3333 0.4444 (   459 PWs)   bands (ev):

   -67.1690 -33.4830 -33.2322 -33.1050  14.5086  16.6002  17.5079  19.7214
    20.3053  20.9593  29.2536  35.3771

          k =-0.1111 0.5556-0.4444 (   459 PWs)   bands (ev):

   -67.1594 -33.5268 -33.2542 -33.1056  14.8285  16.4731  18.1236  19.8118
    20.4069  21.7767  26.9572  34.8155

          k =-0.2222-0.2222 0.4444 (   461 PWs)   bands (ev):

   -67.1709 -33.4440 -33.2388 -33.1264  14.6410  16.6657  16.9219  19.5945
    20.2563  21.2486  31.6887  32.3597

          k =-0.2222 0.6667-0.4444 (   464 PWs)   bands (ev):

   -67.1564 -33.4737 -33.3039 -33.1341  15.4557  16.5017  17.1073  19.7849
    20.2640  23.1815  27.9121  31.0430

          k =-0.3333 0.6667-0.3333 (   463 PWs)   bands (ev):

   -67.1513 -33.4022 -33.4022 -33.1432  15.9713  16.6261  16.6261  20.0295
    20.0295  26.1544  26.1544  28.5629

          k = 0.0000 0.0000 0.2222 (   454 PWs)   bands (ev):

   -67.2281 -33.1551 -33.1216 -33.1216  10.9648  17.7043  17.7043  18.0186
    19.5004  20.3025  39.7751  41.8268

          k = 0.0000-0.1111 0.3333 (   459 PWs)   bands (ev):

   -67.2037 -33.2763 -33.1682 -33.1295  12.3297  17.4349  17.6075  18.7418
    19.0753  20.4584  36.2919  39.4010

          k = 0.0000-0.2222 0.4444 (   458 PWs)   bands (ev):

   -67.1755 -33.4225 -33.2204 -33.1269  14.0104  17.0553  17.3754  19.2329
    19.7817  20.6818  31.5025  37.6520

          k = 0.0000-0.3333 0.5556 (   452 PWs)   bands (ev):

   -67.1568 -33.5169 -33.2536 -33.1248  14.8572  16.8144  17.7129  19.4612
    20.5648  21.4822  27.6798  36.6822

          k =-0.1111-0.1111 0.4444 (   457 PWs)   bands (ev):

   -67.1780 -33.3716 -33.2228 -33.1558  13.8285  17.2182  17.4641  18.8386
    19.5130  20.7614  34.1396  34.8300

          k =-0.1111-0.2222 0.5556 (   454 PWs)   bands (ev):

   -67.1554 -33.4629 -33.2816 -33.1584  15.1425  16.8295  17.3057  19.1648
    20.1725  21.8801  29.7820  33.0571

          k =-0.1111 0.6667-0.3333 (   456 PWs)   bands (ev):

   -67.1465 -33.4991 -33.3062 -33.1582  15.4677  16.9945  17.0973  19.3216
    20.4219  23.3894  27.0529  32.4725

          k =-0.2222 0.2222 0.2222 (   456 PWs)   bands (ev):

   -67.1999 -33.3485 -33.1278 -33.1278  12.7481  16.9667  16.9667  19.6771
    19.9956  19.9956  35.9868  35.9868

          k =-0.2222 0.7778-0.3333 (   457 PWs)   bands (ev):

   -67.1424 -33.4540 -33.3692 -33.1671  16.1089  16.4405  16.9897  19.5460
    20.0890  24.4634  28.1711  29.2623

          k =-0.3333 0.3333 0.2222 (   458 PWs)   bands (ev):

   -67.1768 -33.4395 -33.1980 -33.1331  14.4267  16.5535  16.7533  19.9683
    20.2330  21.0399  31.6401  34.3520

          k = 0.5556-0.5556 0.2222 (   464 PWs)   bands (ev):

   -67.1618 -33.4843 -33.2591 -33.1363  15.1869  16.3280  17.3330  20.0316
    20.3577  22.5988  27.7627  33.4523

          k = 0.5556-0.6667 0.3333 (   464 PWs)   bands (ev):

   -67.1627 -33.4493 -33.2573 -33.1706  15.6373  16.3629  16.5375  20.1195
    20.3262  22.9556  29.8962  30.6723

          k = 0.4444-0.5556 0.3333 (   459 PWs)   bands (ev):

   -67.1569 -33.4236 -33.3154 -33.1798  15.8225  16.3036  16.8330  20.1958
    20.3448  24.9520  27.1466  29.8917

          k = 0.0000 0.0000 0.4444 (   450 PWs)   bands (ev):

   -67.1807 -33.2941 -33.2160 -33.2160  13.5236  17.9535  17.9535  18.0216
    18.7973  20.7788  36.9520  37.2822

          k = 0.0000-0.1111 0.5556 (   450 PWs)   bands (ev):

   -67.1548 -33.3982 -33.2705 -33.2294  14.8955  17.0423  17.9096  18.5820
    19.6520  21.4195  32.4061  35.0372

          k = 0.0000-0.2222 0.6667 (   447 PWs)   bands (ev):

   -67.1377 -33.4800 -33.3060 -33.2230  15.6121  16.6231  17.7593  18.8915
    20.4657  23.2603  28.1444  33.6441

          k =-0.1111-0.1111 0.6667 (   455 PWs)   bands (ev):

   -67.1347 -33.4400 -33.3402 -33.2485  15.7110  16.4002  17.9920  19.0735
    20.1050  23.1537  30.6236  30.9894

          k =-0.1111 0.7778-0.2222 (   460 PWs)   bands (ev):

   -67.1269 -33.4569 -33.3759 -33.2478  15.9674  16.1842  17.8241  19.4308
    20.3086  25.5689  27.4020  30.1749

          k = 0.5556-0.5556 0.4444 (   462 PWs)   bands (ev):

   -67.1572 -33.3853 -33.2687 -33.2687  16.2545  16.2545  16.3816  20.3709
    20.3709  25.4971  28.9565  28.9565

          k = 0.0000 0.0000 0.6667 (   450 PWs)   bands (ev):

   -67.1314 -33.3871 -33.3282 -33.3282  15.4950  16.4211  18.8641  18.8641
    19.7137  22.6511  32.4814  32.4814

          k = 0.0000-0.1111 0.7778 (   460 PWs)   bands (ev):

   -67.1167 -33.4380 -33.3654 -33.3351  15.6763  15.8772  19.0711  19.3291
    20.3559  25.0860  28.9695  30.8792

          k =-0.1111 0.8889-0.1111 (   466 PWs)   bands (ev):

   -67.1097 -33.4192 -33.4192 -33.3436  15.6225  15.6225  19.1717  20.1929
    20.1929  27.8051  27.8051  28.6263

          k = 0.0000 0.0000 0.8889 (   470 PWs)   bands (ev):

   -67.1029 -33.4138 -33.4040 -33.4040  15.3904  15.4353  20.1458  20.1458
    20.3290  27.1599  29.0653  29.0653

     the Fermi energy is    18.2931 ev

!    total energy              =    -329.26291389 Ry
     Harris-Foulkes estimate   =    -329.26291386 Ry
     estimated scf accuracy    <          3.3E-10 Ry

     total all-electron energy =     -2545.559449 Ry

     The total energy is the sum of the following terms:

     one-electron contribution =    -109.45627416 Ry
     hartree contribution      =      65.30457292 Ry
     xc contribution           =     -34.82229405 Ry
     ewald contribution        =    -174.13902115 Ry
     one-center paw contrib.   =     -76.15126955 Ry
     smearing contrib. (-TS)   =       0.00137210 Ry

     total magnetization       =     2.06 Bohr mag/cell
     absolute magnetization    =     2.17 Bohr mag/cell

     convergence has been achieved in  13 iterations

     Forces acting on atoms (Ry/au):


     negative rho (up, down):  0.000E+00 1.269E-04
     atom    1 type  1   force =     0.00000000    0.00000000    0.00000000

     Total force =     0.000000     Total SCF correction =     0.000000


     entering subroutine stress ...


     negative rho (up, down):  0.000E+00 1.269E-04
          total   stress  (Ry/bohr**3)                   (kbar)     P=  -92.52
  -0.00062894   0.00000000  -0.00000000        -92.52      0.00     -0.00
   0.00000000  -0.00062894   0.00000000          0.00    -92.52      0.00
  -0.00000000   0.00000000  -0.00062894         -0.00      0.00    -92.52


     Writing output data file Fe_bcc.save

     init_run     :      1.61s CPU      1.65s WALL (       1 calls)
     electrons    :     23.95s CPU     24.26s WALL (       1 calls)
     forces       :      0.12s CPU      0.13s WALL (       1 calls)
     stress       :      0.44s CPU      0.44s WALL (       1 calls)

     Called by init_run:
     wfcinit      :      0.61s CPU      0.62s WALL (       1 calls)
     potinit      :      0.51s CPU      0.53s WALL (       1 calls)

     Called by electrons:
     c_bands      :     14.50s CPU     14.60s WALL (      13 calls)
     sum_band     :      2.83s CPU      2.88s WALL (      13 calls)
     v_of_rho     :      0.31s CPU      0.31s WALL (      14 calls)
     newd         :      0.20s CPU      0.21s WALL (      14 calls)
     mix_rho      :      0.03s CPU      0.04s WALL (      13 calls)

     Called by c_bands:
     init_us_2    :      0.33s CPU      0.34s WALL (    2030 calls)
     cegterg      :     13.86s CPU     13.94s WALL (     910 calls)

     Called by *egterg:
     h_psi        :     12.06s CPU     12.19s WALL (    2835 calls)
     s_psi        :      0.31s CPU      0.26s WALL (    2835 calls)
     g_psi        :      0.07s CPU      0.07s WALL (    1855 calls)
     cdiaghg      :      0.75s CPU      0.76s WALL (    2765 calls)

     Called by h_psi:
     add_vuspsi   :      0.32s CPU      0.28s WALL (    2835 calls)

     General routines
     calbec       :      0.35s CPU      0.35s WALL (    3885 calls)
     fft          :      0.16s CPU      0.16s WALL (     468 calls)
     ffts         :      0.02s CPU      0.02s WALL (      54 calls)
     fftw         :     12.36s CPU     12.51s WALL (   62710 calls)
     interpolate  :      0.04s CPU      0.04s WALL (      54 calls)
     davcio       :      0.00s CPU      0.00s WALL (      70 calls)


     PAW routines
     PAW_pot      :      6.56s CPU      6.71s WALL (      14 calls)
     PAW_symme    :      0.02s CPU      0.02s WALL (      27 calls)

     PWSCF        :    26.61s CPU        27.04s WALL


   This run was terminated on:  14:42:40  12May2015            

=------------------------------------------------------------------------------=
   JOB DONE.
=------------------------------------------------------------------------------=
