 argument  1 = NH3.nw
                                         
                                         


              Northwest Computational Chemistry Package (NWChem) 6.3
              ------------------------------------------------------


                    Environmental Molecular Sciences Laboratory
                       Pacific Northwest National Laboratory
                                Richland, WA 99352

                              Copyright (c) 1994-2012
                       Pacific Northwest National Laboratory
                            Battelle Memorial Institute

             NWChem is an open-source computational chemistry package
                        distributed under the terms of the
                      Educational Community License (ECL) 2.0
             A copy of the license is included with this distribution
                              in the LICENSE.TXT file

                                  ACKNOWLEDGMENT
                                  --------------

            This software and its documentation were developed at the
            EMSL at Pacific Northwest National Laboratory, a multiprogram
            national laboratory, operated for the U.S. Department of Energy
            by Battelle under Contract Number DE-AC05-76RL01830. Support
            for this work was provided by the Department of Energy Office
            of Biological and Environmental Research, Office of Basic
            Energy Sciences, and the Office of Advanced Scientific Computing.


           Job information
           ---------------

    hostname        = ChensPro.local
    program         = nwchem
    date            = Fri Apr 17 10:17:41 2015

    compiled        = Sat_Jul_20_13:52:43_2013
    source          = /Users/shyuepingong/Software/nwchem-6.3
    nwchem branch   = 6.3
    nwchem revision = 24277
    ga revision     = 10379
    input           = NH3.nw
    prefix          = NH3.
    data base       = ./NH3.db
    status          = startup
    nproc           =        1
    time left       =     -1s



           Memory information
           ------------------

    heap     =   32768001 doubles =    250.0 Mbytes
    stack    =   32768001 doubles =    250.0 Mbytes
    global   =   65536000 doubles =    500.0 Mbytes (distinct from heap & stack)
    total    =  131072002 doubles =   1000.0 Mbytes
    verify   = yes
    hardfail = no 


           Directory information
           ---------------------

  0 permanent = .
  0 scratch   = .




                                NWChem Input Module
                                -------------------



 Scaling coordinates for geometry "geometry" by  1.889725989
 (inverse scale =  0.529177249)

 C3V symmetry detected


                             Geometry "geometry" -> ""
                             -------------------------

 Output coordinates in angstroms (scale by  1.889725989 to convert to a.u.)

  No.       Tag          Charge          X              Y              Z
 ---- ---------------- ---------- -------------- -------------- --------------
    1 N                    7.0000     0.00000000     0.00000000     0.10898739
    2 H                    1.0000     0.72683573     0.72683573    -0.25430392
    3 H                    1.0000     0.26604034    -0.99287607    -0.25430392
    4 H                    1.0000    -0.99287607     0.26604034    -0.25430392

      Atomic Mass 
      ----------- 

      N                 14.003070
      H                  1.007825


 Effective nuclear repulsion energy (a.u.)      11.0848640562

            Nuclear Dipole moment (a.u.) 
            ----------------------------
        X                 Y               Z
 ---------------- ---------------- ----------------
     0.0000000000    -0.0000000000     0.0000000000

      Symmetry information
      --------------------

 Group name             C3v       
 Group number             17
 Group order               6
 No. of unique centers     2

      Symmetry unique atoms

     1    2


            XYZ format geometry
            -------------------
     4
 geometry
 N                     0.00000000     0.00000000     0.10898739
 H                     0.72683573     0.72683573    -0.25430392
 H                     0.26604034    -0.99287607    -0.25430392
 H                    -0.99287607     0.26604034    -0.25430392

 ==============================================================================
                                internuclear distances
 ------------------------------------------------------------------------------
       center one      |      center two      | atomic units |  angstroms
 ------------------------------------------------------------------------------
    2 H                |   1 N                |     2.06020  |     1.09021
    3 H                |   1 N                |     2.06020  |     1.09021
    4 H                |   1 N                |     2.06020  |     1.09021
 ------------------------------------------------------------------------------
                         number of included internuclear distances:          3
 ==============================================================================



 ==============================================================================
                                 internuclear angles
 ------------------------------------------------------------------------------
        center 1       |       center 2       |       center 3       |  degrees
 ------------------------------------------------------------------------------
    2 H                |   1 N                |   3 H                |   109.48
    2 H                |   1 N                |   4 H                |   109.48
    3 H                |   1 N                |   4 H                |   109.48
 ------------------------------------------------------------------------------
                            number of included internuclear angles:          3
 ==============================================================================



                                 H3N1 dft optimize
                                 -----------------
  library name resolved from: environment
  library file name is: </Users/chenzheng/Google Drive/nano266/resources/nwchem_basis/>
  
                      Basis "ao basis" -> "" (cartesian)
                      -----
  H (Hydrogen)
  ------------
            Exponent  Coefficients 
       -------------- ---------------------------------------------------------
  1 S  3.38650000E+01  0.025494
  1 S  5.09479000E+00  0.190373
  1 S  1.15879000E+00  0.852161

  2 S  3.25840000E-01  1.000000

  3 S  1.02741000E-01  1.000000

  N (Nitrogen)
  ------------
            Exponent  Coefficients 
       -------------- ---------------------------------------------------------
  1 S  6.29348000E+03  0.001970
  1 S  9.49044000E+02  0.014961
  1 S  2.18776000E+02  0.073501
  1 S  6.36916000E+01  0.248937
  1 S  1.88282000E+01  0.602460
  1 S  2.72023000E+00  0.256202

  2 S  3.06331000E+01  0.111906
  2 S  7.02614000E+00  0.921666
  2 S  2.11205000E+00 -0.002569

  3 P  3.06331000E+01  0.038312
  3 P  7.02614000E+00  0.237403
  3 P  2.11205000E+00  0.817592

  4 S  6.84009000E-01  1.000000

  5 P  6.84009000E-01  1.000000

  6 S  2.00878000E-01  1.000000

  7 P  2.00878000E-01  1.000000

  8 S  6.39000000E-02  1.000000

  9 P  6.39000000E-02  1.000000

 10 D  9.13000000E-01  1.000000



 Summary of "ao basis" -> "" (cartesian)
 ------------------------------------------------------------------------------
       Tag                 Description            Shells   Functions and Types
 ---------------- ------------------------------  ------  ---------------------
 H                          6-311+G*                 3        3   3s
 N                          6-311+G*                10       23   5s4p1d




                           NWChem Geometry Optimization
                           ----------------------------




                                 H3N1 dft optimize


 maximum gradient threshold         (gmax) =   0.000450
 rms gradient threshold             (grms) =   0.000300
 maximum cartesian step threshold   (xmax) =   0.001800
 rms cartesian step threshold       (xrms) =   0.001200
 fixed trust radius                (trust) =   0.300000
 maximum step size to saddle      (sadstp) =   0.100000
 energy precision                  (eprec) =   5.0D-06
 maximum number of steps          (nptopt) =   20
 initial hessian option           (inhess) =    0
 line search option               (linopt) =    1
 hessian update option            (modupd) =    1
 saddle point option              (modsad) =    0
 initial eigen-mode to follow     (moddir) =    0
 initial variable to follow       (vardir) =    0
 follow first negative mode     (firstneg) =    T
 apply conjugacy                    (opcg) =    F
 source of zmatrix                         =           


          -------------------
          Energy Minimization
          -------------------


 Using diagonal initial Hessian 

          --------
          Step   0
          --------


                         Geometry "geometry" -> "geometry"
                         ---------------------------------

 Output coordinates in angstroms (scale by  1.889725989 to convert to a.u.)

  No.       Tag          Charge          X              Y              Z
 ---- ---------------- ---------- -------------- -------------- --------------
    1 N                    7.0000     0.00000000     0.00000000     0.10898739
    2 H                    1.0000     0.72683573     0.72683573    -0.25430392
    3 H                    1.0000     0.26604034    -0.99287607    -0.25430392
    4 H                    1.0000    -0.99287607     0.26604034    -0.25430392

      Atomic Mass 
      ----------- 

      N                 14.003070
      H                  1.007825


 Effective nuclear repulsion energy (a.u.)      11.0848640562

            Nuclear Dipole moment (a.u.) 
            ----------------------------
        X                 Y               Z
 ---------------- ---------------- ----------------
     0.0000000000    -0.0000000000     0.0000000000

      Symmetry information
      --------------------

 Group name             C3v       
 Group number             17
 Group order               6
 No. of unique centers     2

      Symmetry unique atoms

     1    2


                                 NWChem DFT Module
                                 -----------------


                                 H3N1 dft optimize


  Caching 1-el integrals 
  Rotation of axis 

            General Information
            -------------------
          SCF calculation type: DFT
          Wavefunction type:  closed shell.
          No. of atoms     :     4
          No. of electrons :    10
           Alpha electrons :     5
            Beta electrons :     5
          Charge           :     0
          Spin multiplicity:     1
          Use of symmetry is: on ; symmetry adaption is: on 
          Maximum number of iterations:  30
          AO basis - number of functions:    32
                     number of shells:    19
          Convergence on energy requested: 1.00D-06
          Convergence on density requested: 1.00D-05
          Convergence on gradient requested: 5.00D-04

              XC Information
              --------------
          PerdewBurkeErnzerhof Exchange Functional  1.000          

             Grid Information
             ----------------
          Grid used for XC integration:  medium    
          Radial quadrature: Mura-Knowles        
          Angular quadrature: Lebedev. 
          Tag              B.-S. Rad. Rad. Pts. Rad. Cut. Ang. Pts.
          ---              ---------- --------- --------- ---------
          N                   0.65       49           7.0       434
          H                   0.35       45           7.0       434
          Grid pruning is: on 
          Number of quadrature shells:    94
          Spatial weights used:  Erf1

          Convergence Information
          -----------------------
          Convergence aids based upon iterative change in 
          total energy or number of iterations. 
          Levelshifting, if invoked, occurs when the 
          HOMO/LUMO gap drops below (HL_TOL): 1.00D-02
          DIIS, if invoked, will attempt to extrapolate 
          using up to (NFOCK): 10 stored Fock matrices.

                    Damping( 0%)  Levelshifting(0.5)       DIIS
                  --------------- ------------------- ---------------
          dE  on:    start            ASAP                start   
          dE off:    2 iters         30 iters            30 iters 


      Screening Tolerance Information
      -------------------------------
          Density screening/tol_rho: 1.00D-10
          AO Gaussian exp screening on grid/accAOfunc:  14
          CD Gaussian exp screening on grid/accCDfunc:  20
          XC Gaussian exp screening on grid/accXCfunc:  20
          Schwarz screening/accCoul: 1.00D-08


      Superposition of Atomic Density Guess
      -------------------------------------

 Sum of atomic energies:         -55.80739562

      Non-variational initial energy
      ------------------------------

 Total energy =     -56.015210
 1-e energy   =     -96.737730
 2-e energy   =      29.637656
 HOMO         =      -0.349966
 LUMO         =       0.045352


      Symmetry analysis of molecular orbitals - initial
      -------------------------------------------------

  Numbering of irreducible representations: 

     1 a1          2 a2          3 e       

  Orbital symmetries:

     1 a1          2 a1          3 e           4 e           5 a1      
     6 a1          7 e           8 e           9 a1         10 e       
    11 e          12 a1         13 e          14 e          15 a1      

   Time after variat. SCF:      0.1
   Time prior to 1st pass:      0.1

 #quartets = 6.571D+03 #integrals = 4.227D+04 #direct =  0.0% #cached =100.0%


 Integral file          = ./NH3.aoints.0
 Record size in doubles =  65536        No. of integs per rec  =  43688
 Max. records in memory =      2        Max. records in file   = 188074
 No. of bits per label  =      8        No. of bits per value  =     64


 Grid_pts file          = ./NH3.gridpts.0
 Record size in doubles =  12289        No. of grid_pts per rec  =   3070
 Max. records in memory =     16        Max. recs in file   =   1002987


           Memory utilization after 1st SCF pass: 
           Heap Space remaining (MW):       32.44            32438319
          Stack Space remaining (MW):       32.77            32767696

   convergence    iter        energy       DeltaE   RMS-Dens  Diis-err    time
 ---------------- ----- ----------------- --------- --------- ---------  ------
 d= 0,ls=0.0,diis     1    -56.1434830532 -6.72D+01  2.99D-02  4.24D-01     0.2
 d= 0,ls=0.0,diis     2    -56.1063078518  3.72D-02  2.31D-02  6.14D-01     0.3
 d= 0,ls=0.0,diis     3    -56.1636549421 -5.73D-02  4.18D-03  1.43D-01     0.4
 d= 0,ls=0.0,diis     4    -56.1780794264 -1.44D-02  1.33D-03  8.46D-04     0.4
 d= 0,ls=0.0,diis     5    -56.1781790598 -9.96D-05  1.24D-04  2.33D-05     0.5
  Resetting Diis
 d= 0,ls=0.0,diis     6    -56.1781819401 -2.88D-06  1.39D-05  4.15D-07     0.6
 d= 0,ls=0.0,diis     7    -56.1781819916 -5.15D-08  1.37D-06  8.24D-10     0.7


         Total DFT energy =      -56.178181991556
      One electron energy =      -97.882983123135
           Coulomb energy =       38.146210275217
    Exchange-Corr. energy =       -7.526273199861
 Nuclear repulsion energy =       11.084864056225

 Numeric. integr. density =       10.000000033688

     Total iterative time =      0.6s



                  Occupations of the irreducible representations
                  ----------------------------------------------

                     irrep           alpha         beta
                     --------     --------     --------
                     a1                3.0          3.0
                     a2                0.0          0.0
                     e                 2.0          2.0


                       DFT Final Molecular Orbital Analysis
                       ------------------------------------

 Vector    1  Occ=2.000000D+00  E=-1.397099D+01  Symmetry=a1
              MO Center=  2.9D-17, -1.6D-17,  1.1D-01, r^2= 2.0D-02
   Bfn.  Coefficient  Atom+Function         Bfn.  Coefficient  Atom+Function  
  ----- ------------  ---------------      ----- ------------  ---------------
     1      0.558572  1 N  s                  2      0.460705  1 N  s          

 Vector    2  Occ=2.000000D+00  E=-7.176967D-01  Symmetry=a1
              MO Center=  4.1D-18, -1.0D-17, -7.5D-02, r^2= 7.3D-01
   Bfn.  Coefficient  Atom+Function         Bfn.  Coefficient  Atom+Function  
  ----- ------------  ---------------      ----- ------------  ---------------
     6      0.494060  1 N  s                 10      0.391004  1 N  s          
     2     -0.175400  1 N  s          

 Vector    3  Occ=2.000000D+00  E=-3.733018D-01  Symmetry=e
              MO Center= -5.0D-02, -2.1D-01, -5.3D-02, r^2= 1.1D+00
   Bfn.  Coefficient  Atom+Function         Bfn.  Coefficient  Atom+Function  
  ----- ------------  ---------------      ----- ------------  ---------------
     8      0.285999  1 N  py                28     -0.202302  3 H  s          
    12      0.196484  1 N  py                 4      0.188187  1 N  py         
    27     -0.171101  3 H  s                  7     -0.159333  1 N  px         

 Vector    4  Occ=2.000000D+00  E=-3.733018D-01  Symmetry=e
              MO Center=  5.0D-02,  2.1D-01, -5.3D-02, r^2= 1.1D+00
   Bfn.  Coefficient  Atom+Function         Bfn.  Coefficient  Atom+Function  
  ----- ------------  ---------------      ----- ------------  ---------------
     7      0.285999  1 N  px                25      0.200648  2 H  s          
    11      0.196484  1 N  px                 3      0.188187  1 N  px         
    24      0.169702  2 H  s                  8      0.159333  1 N  py         

 Vector    5  Occ=2.000000D+00  E=-1.850244D-01  Symmetry=a1
              MO Center= -1.5D-16,  1.0D-16,  2.3D-01, r^2= 1.1D+00
   Bfn.  Coefficient  Atom+Function         Bfn.  Coefficient  Atom+Function  
  ----- ------------  ---------------      ----- ------------  ---------------
    13      0.395001  1 N  pz                 9      0.367836  1 N  pz         
     5      0.258520  1 N  pz                10      0.204862  1 N  s          
     6      0.186919  1 N  s                 17      0.186524  1 N  pz         

 Vector    6  Occ=0.000000D+00  E= 4.078583D-05  Symmetry=a1
              MO Center= -2.1D-17, -5.6D-17, -5.5D-01, r^2= 4.5D+00
   Bfn.  Coefficient  Atom+Function         Bfn.  Coefficient  Atom+Function  
  ----- ------------  ---------------      ----- ------------  ---------------
    14      1.989392  1 N  s                 10     -1.039024  1 N  s          
    17     -0.453827  1 N  pz                26     -0.305270  2 H  s          
    29     -0.305270  3 H  s                 32     -0.305270  4 H  s          
    13      0.219526  1 N  pz                 6     -0.200768  1 N  s          
    25      0.190395  2 H  s                 28      0.190395  3 H  s          

 Vector    7  Occ=0.000000D+00  E= 7.621095D-02  Symmetry=e
              MO Center=  2.6D-02,  7.8D-03,  8.8D-02, r^2= 6.2D+00
   Bfn.  Coefficient  Atom+Function         Bfn.  Coefficient  Atom+Function  
  ----- ------------  ---------------      ----- ------------  ---------------
    16      1.040906  1 N  py                15      0.620452  1 N  px         
    12     -0.495560  1 N  py                11     -0.295388  1 N  px         
     8     -0.169555  1 N  py         

 Vector    8  Occ=0.000000D+00  E= 7.621095D-02  Symmetry=e
              MO Center= -2.6D-02, -7.8D-03,  8.8D-02, r^2= 6.2D+00
   Bfn.  Coefficient  Atom+Function         Bfn.  Coefficient  Atom+Function  
  ----- ------------  ---------------      ----- ------------  ---------------
    15      1.040906  1 N  px                16     -0.620452  1 N  py         
    11     -0.495560  1 N  px                12      0.295388  1 N  py         
     7     -0.169555  1 N  px         

 Vector    9  Occ=0.000000D+00  E= 1.035970D-01  Symmetry=a1
              MO Center= -9.4D-15,  1.1D-15, -2.4D-02, r^2= 6.6D+00
   Bfn.  Coefficient  Atom+Function         Bfn.  Coefficient  Atom+Function  
  ----- ------------  ---------------      ----- ------------  ---------------
    14      1.771843  1 N  s                 17     -1.559879  1 N  pz         
    26     -1.021737  2 H  s                 29     -1.021737  3 H  s          
    32     -1.021737  4 H  s                 10      0.674256  1 N  s          
    13      0.360337  1 N  pz         

 Vector   10  Occ=0.000000D+00  E= 1.238413D-01  Symmetry=e
              MO Center=  2.9D-02,  3.3D-02,  1.4D-01, r^2= 5.0D+00
   Bfn.  Coefficient  Atom+Function         Bfn.  Coefficient  Atom+Function  
  ----- ------------  ---------------      ----- ------------  ---------------
    29      2.345311  3 H  s                 32     -2.253359  4 H  s          
    16      1.323689  1 N  py                15     -1.235072  1 N  px         
    12      0.425683  1 N  py                11     -0.397184  1 N  px         

 Vector   11  Occ=0.000000D+00  E= 1.238413D-01  Symmetry=e
              MO Center= -2.9D-02, -3.3D-02,  1.4D-01, r^2= 5.0D+00
   Bfn.  Coefficient  Atom+Function         Bfn.  Coefficient  Atom+Function  
  ----- ------------  ---------------      ----- ------------  ---------------
    26      2.655043  2 H  s                 32     -1.407154  4 H  s          
    15     -1.323689  1 N  px                29     -1.247889  3 H  s          
    16     -1.235072  1 N  py                11     -0.425683  1 N  px         
    12     -0.397184  1 N  py                25      0.163803  2 H  s          

 Vector   12  Occ=0.000000D+00  E= 1.645858D-01  Symmetry=a1
              MO Center= -2.2D-14, -3.5D-14,  1.0D-01, r^2= 6.1D+00
   Bfn.  Coefficient  Atom+Function         Bfn.  Coefficient  Atom+Function  
  ----- ------------  ---------------      ----- ------------  ---------------
    14      6.106008  1 N  s                 26     -2.688478  2 H  s          
    29     -2.688478  3 H  s                 32     -2.688478  4 H  s          
    10      0.895067  1 N  s                 17     -0.840331  1 N  pz         
    13     -0.513900  1 N  pz         

 Vector   13  Occ=0.000000D+00  E= 4.526367D-01  Symmetry=e
              MO Center=  2.8D-01,  3.7D-02, -9.2D-02, r^2= 4.2D+00
   Bfn.  Coefficient  Atom+Function         Bfn.  Coefficient  Atom+Function  
  ----- ------------  ---------------      ----- ------------  ---------------
    26      3.139268  2 H  s                 29     -2.488731  3 H  s          
    16     -1.580178  1 N  py                25     -1.534344  2 H  s          
    28      1.216388  3 H  s                 15     -0.781705  1 N  px         
    32     -0.650538  4 H  s                 12      0.596654  1 N  py         
    31      0.317956  4 H  s                 11      0.295161  1 N  px         

 Vector   14  Occ=0.000000D+00  E= 4.526367D-01  Symmetry=e
              MO Center= -2.8D-01, -3.7D-02, -9.2D-02, r^2= 4.2D+00
   Bfn.  Coefficient  Atom+Function         Bfn.  Coefficient  Atom+Function  
  ----- ------------  ---------------      ----- ------------  ---------------
    32      3.249327  4 H  s                 29     -2.188046  3 H  s          
    31     -1.588136  4 H  s                 15      1.580178  1 N  px         
    28      1.069426  3 H  s                 26     -1.061281  2 H  s          
    16     -0.781705  1 N  py                11     -0.596654  1 N  px         
    25      0.518710  2 H  s                 12      0.295161  1 N  py         

 Vector   15  Occ=0.000000D+00  E= 5.449057D-01  Symmetry=a1
              MO Center= -1.9D-14, -3.9D-14, -4.6D-01, r^2= 3.9D+00
   Bfn.  Coefficient  Atom+Function         Bfn.  Coefficient  Atom+Function  
  ----- ------------  ---------------      ----- ------------  ---------------
    14      5.446828  1 N  s                 26     -3.062312  2 H  s          
    29     -3.062312  3 H  s                 32     -3.062312  4 H  s          
    25      1.323331  2 H  s                 28      1.323331  3 H  s          
    31      1.323331  4 H  s                 17     -1.152543  1 N  pz         
    13      0.320517  1 N  pz                 6     -0.316547  1 N  s          


 center of mass
 --------------
 x =   0.00000000 y =  -0.00000000 z =   0.08404789

 moments of inertia (a.u.)
 ------------------
           6.875916168729           0.000000000000           0.000000000000
           0.000000000000           6.875916168729           0.000000000000
           0.000000000000           0.000000000000          11.407922994090

     Multipole analysis of the density
     ---------------------------------

     L   x y z        total         alpha         beta         nuclear
     -   - - -        -----         -----         ----         -------
     0   0 0 0     -0.000000     -5.000000     -5.000000     10.000000

     1   1 0 0     -0.000000     -0.000000     -0.000000      0.000000
     1   0 1 0     -0.000000     -0.000000     -0.000000     -0.000000
     1   0 0 1     -0.613420     -0.306710     -0.306710      0.000000

     2   2 0 0     -4.877426     -5.268550     -5.268550      5.659675
     2   1 1 0      0.000000      0.000000      0.000000     -0.000000
     2   1 0 1      0.000000      0.000000      0.000000      0.000000
     2   0 2 0     -4.877426     -5.268550     -5.268550      5.659675
     2   0 1 1      0.000000      0.000000      0.000000      0.000000
     2   0 0 2     -7.936093     -4.462923     -4.462923      0.989753


 Parallel integral file used       1 records with       0 large values



                            NWChem DFT Gradient Module
                            --------------------------


                                 H3N1 dft optimize



  charge          =   0.00
  wavefunction    = closed shell

  Rotation of axis 
  Using symmetry


                         DFT ENERGY GRADIENTS

    atom               coordinates                        gradient
                 x          y          z           x          y          z
   1 N       0.000000   0.000000   0.205956    0.000000   0.000000   0.019814
   2 H       1.373520   1.373520  -0.480565    0.025578   0.025578  -0.006605
   3 H       0.502743  -1.876264  -0.480565    0.009362  -0.034940  -0.006605
   4 H      -1.876264   0.502743  -0.480565   -0.034940   0.009362  -0.006605

                 ----------------------------------------
                 |  Time  |  1-e(secs)   |  2-e(secs)   |
                 ----------------------------------------
                 |  CPU   |       0.00   |       0.09   |
                 ----------------------------------------
                 |  WALL  |       0.00   |       0.10   |
                 ----------------------------------------

@ Step       Energy      Delta E   Gmax     Grms     Xrms     Xmax   Walltime
@ ---- ---------------- -------- -------- -------- -------- -------- --------
@    0     -56.17818199  0.0D+00  0.03494  0.01925  0.00000  0.00000      1.0
                                                                    


                                 NWChem DFT Module
                                 -----------------


                                 H3N1 dft optimize


  Caching 1-el integrals 
  Rotation of axis 

            General Information
            -------------------
          SCF calculation type: DFT
          Wavefunction type:  closed shell.
          No. of atoms     :     4
          No. of electrons :    10
           Alpha electrons :     5
            Beta electrons :     5
          Charge           :     0
          Spin multiplicity:     1
          Use of symmetry is: on ; symmetry adaption is: on 
          Maximum number of iterations:  30
          AO basis - number of functions:    32
                     number of shells:    19
          Convergence on energy requested: 1.00D-06
          Convergence on density requested: 1.00D-05
          Convergence on gradient requested: 5.00D-04

              XC Information
              --------------
          PerdewBurkeErnzerhof Exchange Functional  1.000          

             Grid Information
             ----------------
          Grid used for XC integration:  medium    
          Radial quadrature: Mura-Knowles        
          Angular quadrature: Lebedev. 
          Tag              B.-S. Rad. Rad. Pts. Rad. Cut. Ang. Pts.
          ---              ---------- --------- --------- ---------
          N                   0.65       49           7.0       434
          H                   0.35       45           7.0       434
          Grid pruning is: on 
          Number of quadrature shells:    94
          Spatial weights used:  Erf1

          Convergence Information
          -----------------------
          Convergence aids based upon iterative change in 
          total energy or number of iterations. 
          Levelshifting, if invoked, occurs when the 
          HOMO/LUMO gap drops below (HL_TOL): 1.00D-02
          DIIS, if invoked, will attempt to extrapolate 
          using up to (NFOCK): 10 stored Fock matrices.

                    Damping( 0%)  Levelshifting(0.5)       DIIS
                  --------------- ------------------- ---------------
          dE  on:    start            ASAP                start   
          dE off:    2 iters         30 iters            30 iters 


      Screening Tolerance Information
      -------------------------------
          Density screening/tol_rho: 1.00D-10
          AO Gaussian exp screening on grid/accAOfunc:  14
          CD Gaussian exp screening on grid/accCDfunc:  20
          XC Gaussian exp screening on grid/accXCfunc:  20
          Schwarz screening/accCoul: 1.00D-08


 Loading old vectors from job with title :

H3N1 dft optimize


      Symmetry analysis of molecular orbitals - initial
      -------------------------------------------------

  Numbering of irreducible representations: 

     1 a1          2 a2          3 e       

  Orbital symmetries:

     1 a1          2 a1          3 e           4 e           5 a1      
     6 a1          7 e           8 e           9 a1         10 e       
    11 e          12 a1         13 e          14 e          15 a1      

   Time after variat. SCF:      0.9
   Time prior to 1st pass:      0.9

 #quartets = 6.571D+03 #integrals = 4.227D+04 #direct =  0.0% #cached =100.0%


 Integral file          = ./NH3.aoints.0
 Record size in doubles =  65536        No. of integs per rec  =  43688
 Max. records in memory =      2        Max. records in file   = 188074
 No. of bits per label  =      8        No. of bits per value  =     64


 Grid_pts file          = ./NH3.gridpts.0
 Record size in doubles =  12289        No. of grid_pts per rec  =   3070
 Max. records in memory =     16        Max. recs in file   =   1002987


           Memory utilization after 1st SCF pass: 
           Heap Space remaining (MW):       32.44            32438319
          Stack Space remaining (MW):       32.77            32767696

   convergence    iter        energy       DeltaE   RMS-Dens  Diis-err    time
 ---------------- ----- ----------------- --------- --------- ---------  ------
 d= 0,ls=0.0,diis     1    -56.1834765827 -6.77D+01  3.03D-03  1.04D-02     1.1
 d= 0,ls=0.0,diis     2    -56.1828830460  5.94D-04  2.28D-03  1.62D-02     1.2
 d= 0,ls=0.0,diis     3    -56.1843857162 -1.50D-03  8.20D-04  2.07D-03     1.2
 d= 0,ls=0.0,diis     4    -56.1845946907 -2.09D-04  1.45D-04  1.52D-05     1.3
 d= 0,ls=0.0,diis     5    -56.1845962097 -1.52D-06  8.09D-06  9.50D-08     1.4
 d= 0,ls=0.0,diis     6    -56.1845962223 -1.26D-08  4.57D-07  7.14D-10     1.4


         Total DFT energy =      -56.184596222282
      One electron energy =      -98.749758690370
           Coulomb energy =       38.584283087191
    Exchange-Corr. energy =       -7.575216065279
 Nuclear repulsion energy =       11.556095446176

 Numeric. integr. density =        9.999999112274

     Total iterative time =      0.5s



                  Occupations of the irreducible representations
                  ----------------------------------------------

                     irrep           alpha         beta
                     --------     --------     --------
                     a1                3.0          3.0
                     a2                0.0          0.0
                     e                 2.0          2.0


                       DFT Final Molecular Orbital Analysis
                       ------------------------------------

 Vector    1  Occ=2.000000D+00  E=-1.396085D+01  Symmetry=a1
              MO Center=  8.2D-18,  1.3D-18,  1.2D-01, r^2= 2.0D-02
   Bfn.  Coefficient  Atom+Function         Bfn.  Coefficient  Atom+Function  
  ----- ------------  ---------------      ----- ------------  ---------------
     1      0.558536  1 N  s                  2      0.460643  1 N  s          

 Vector    2  Occ=2.000000D+00  E=-7.355514D-01  Symmetry=a1
              MO Center=  1.2D-16,  5.2D-18, -7.9D-02, r^2= 7.1D-01
   Bfn.  Coefficient  Atom+Function         Bfn.  Coefficient  Atom+Function  
  ----- ------------  ---------------      ----- ------------  ---------------
     6      0.489253  1 N  s                 10      0.381959  1 N  s          
     2     -0.174066  1 N  s          

 Vector    3  Occ=2.000000D+00  E=-3.808404D-01  Symmetry=e
              MO Center=  1.9D-01,  6.9D-02, -4.6D-02, r^2= 1.0D+00
   Bfn.  Coefficient  Atom+Function         Bfn.  Coefficient  Atom+Function  
  ----- ------------  ---------------      ----- ------------  ---------------
     8      0.280581  1 N  py                25      0.200307  2 H  s          
    12      0.187181  1 N  py                 4      0.184806  1 N  py         
     7      0.177926  1 N  px                24      0.174371  2 H  s          

 Vector    4  Occ=2.000000D+00  E=-3.808404D-01  Symmetry=e
              MO Center= -1.9D-01, -6.9D-02, -4.6D-02, r^2= 1.0D+00
   Bfn.  Coefficient  Atom+Function         Bfn.  Coefficient  Atom+Function  
  ----- ------------  ---------------      ----- ------------  ---------------
     7      0.280581  1 N  px                31     -0.195895  4 H  s          
    11      0.187181  1 N  px                 3      0.184806  1 N  px         
     8     -0.177926  1 N  py                30     -0.170530  4 H  s          
    28      0.151048  3 H  s          

 Vector    5  Occ=2.000000D+00  E=-1.899284D-01  Symmetry=a1
              MO Center= -4.1D-17,  1.3D-16,  2.7D-01, r^2= 1.1D+00
   Bfn.  Coefficient  Atom+Function         Bfn.  Coefficient  Atom+Function  
  ----- ------------  ---------------      ----- ------------  ---------------
    13      0.398304  1 N  pz                 9      0.365525  1 N  pz         
     5      0.256156  1 N  pz                 6      0.200357  1 N  s          
    10      0.198464  1 N  s                 17      0.182677  1 N  pz         

 Vector    6  Occ=0.000000D+00  E= 1.747617D-03  Symmetry=a1
              MO Center=  2.5D-16,  3.3D-16, -7.0D-01, r^2= 4.8D+00
   Bfn.  Coefficient  Atom+Function         Bfn.  Coefficient  Atom+Function  
  ----- ------------  ---------------      ----- ------------  ---------------
    14      2.533249  1 N  s                 10     -0.903195  1 N  s          
    17     -0.635856  1 N  pz                26     -0.564995  2 H  s          
    29     -0.564995  3 H  s                 32     -0.564995  4 H  s          
    13      0.201167  1 N  pz                25      0.193057  2 H  s          
    28      0.193057  3 H  s                 31      0.193057  4 H  s          

 Vector    7  Occ=0.000000D+00  E= 7.854790D-02  Symmetry=e
              MO Center=  1.5D-02, -5.8D-02,  1.7D-01, r^2= 6.5D+00
   Bfn.  Coefficient  Atom+Function         Bfn.  Coefficient  Atom+Function  
  ----- ------------  ---------------      ----- ------------  ---------------
    15      1.288663  1 N  px                11     -0.499000  1 N  px         
    16      0.355526  1 N  py                26     -0.204891  2 H  s          
    32      0.203150  4 H  s                  7     -0.170864  1 N  px         

 Vector    8  Occ=0.000000D+00  E= 7.854790D-02  Symmetry=e
              MO Center= -1.5D-02,  5.8D-02,  1.7D-01, r^2= 6.5D+00
   Bfn.  Coefficient  Atom+Function         Bfn.  Coefficient  Atom+Function  
  ----- ------------  ---------------      ----- ------------  ---------------
    16      1.288663  1 N  py                12     -0.499000  1 N  py         
    15     -0.355526  1 N  px                29      0.235583  3 H  s          
     8     -0.170864  1 N  py         

 Vector    9  Occ=0.000000D+00  E= 1.061720D-01  Symmetry=a1
              MO Center=  2.5D-16,  2.6D-16,  3.5D-01, r^2= 6.4D+00
   Bfn.  Coefficient  Atom+Function         Bfn.  Coefficient  Atom+Function  
  ----- ------------  ---------------      ----- ------------  ---------------
    17      1.506250  1 N  pz                14     -1.264758  1 N  s          
    26      0.846688  2 H  s                 29      0.846688  3 H  s          
    32      0.846688  4 H  s                 10     -0.740108  1 N  s          
    13     -0.370907  1 N  pz         

 Vector   10  Occ=0.000000D+00  E= 1.346718D-01  Symmetry=e
              MO Center= -3.8D-02, -6.3D-02,  6.3D-02, r^2= 4.8D+00
   Bfn.  Coefficient  Atom+Function         Bfn.  Coefficient  Atom+Function  
  ----- ------------  ---------------      ----- ------------  ---------------
    29      2.605268  3 H  s                 32     -2.264981  4 H  s          
    16      1.355702  1 N  py                15     -1.062993  1 N  px         
    12      0.521990  1 N  py                11     -0.409287  1 N  px         
    26     -0.340287  2 H  s                 28      0.157835  3 H  s          

 Vector   11  Occ=0.000000D+00  E= 1.346718D-01  Symmetry=e
              MO Center=  3.8D-02,  6.3D-02,  6.3D-02, r^2= 4.8D+00
   Bfn.  Coefficient  Atom+Function         Bfn.  Coefficient  Atom+Function  
  ----- ------------  ---------------      ----- ------------  ---------------
    26      2.811840  2 H  s                 32     -1.700617  4 H  s          
    15     -1.355702  1 N  px                29     -1.111223  3 H  s          
    16     -1.062993  1 N  py                11     -0.521990  1 N  px         
    12     -0.409287  1 N  py                25      0.170350  2 H  s          

 Vector   12  Occ=0.000000D+00  E= 1.811376D-01  Symmetry=a1
              MO Center=  2.6D-15, -3.3D-14, -1.7D-01, r^2= 6.1D+00
   Bfn.  Coefficient  Atom+Function         Bfn.  Coefficient  Atom+Function  
  ----- ------------  ---------------      ----- ------------  ---------------
    14      6.531506  1 N  s                 26     -2.981767  2 H  s          
    29     -2.981767  3 H  s                 32     -2.981767  4 H  s          
    10      1.305864  1 N  s                 17     -1.108617  1 N  pz         
    13     -0.562802  1 N  pz         

 Vector   13  Occ=0.000000D+00  E= 4.649481D-01  Symmetry=e
              MO Center= -1.9D-01, -5.3D-02, -3.5D-02, r^2= 4.2D+00
   Bfn.  Coefficient  Atom+Function         Bfn.  Coefficient  Atom+Function  
  ----- ------------  ---------------      ----- ------------  ---------------
    32      3.224346  4 H  s                 29     -2.373422  3 H  s          
    31     -1.619735  4 H  s                 15      1.537842  1 N  px         
    28      1.192278  3 H  s                 16     -0.896817  1 N  py         
    26     -0.850924  2 H  s                 11     -0.699992  1 N  px         
    25      0.427457  2 H  s                 12      0.408212  1 N  py         

 Vector   14  Occ=0.000000D+00  E= 4.649481D-01  Symmetry=e
              MO Center=  1.9D-01,  5.3D-02, -3.5D-02, r^2= 4.2D+00
   Bfn.  Coefficient  Atom+Function         Bfn.  Coefficient  Atom+Function  
  ----- ------------  ---------------      ----- ------------  ---------------
    26      3.231873  2 H  s                 29     -2.352858  3 H  s          
    25     -1.623516  2 H  s                 16     -1.537842  1 N  py         
    28      1.181947  3 H  s                 15     -0.896817  1 N  px         
    32     -0.879015  4 H  s                 12      0.699992  1 N  py         
    31      0.441569  4 H  s                 11      0.408212  1 N  px         

 Vector   15  Occ=0.000000D+00  E= 5.856432D-01  Symmetry=a1
              MO Center=  3.6D-15, -7.2D-15, -5.7D-01, r^2= 3.6D+00
   Bfn.  Coefficient  Atom+Function         Bfn.  Coefficient  Atom+Function  
  ----- ------------  ---------------      ----- ------------  ---------------
    14      5.425828  1 N  s                 26     -3.012527  2 H  s          
    29     -3.012527  3 H  s                 32     -3.012527  4 H  s          
    25      1.513505  2 H  s                 28      1.513505  3 H  s          
    31      1.513505  4 H  s                 17     -1.288370  1 N  pz         
    13      0.623883  1 N  pz                10     -0.551603  1 N  s          


 center of mass
 --------------
 x =   0.00000000 y =   0.00000000 z =   0.10556322

 moments of inertia (a.u.)
 ------------------
           6.427476052892           0.000000000000           0.000000000000
           0.000000000000           6.427476052892           0.000000000000
           0.000000000000           0.000000000000          10.247364399152

     Multipole analysis of the density
     ---------------------------------

     L   x y z        total         alpha         beta         nuclear
     -   - - -        -----         -----         ----         -------
     0   0 0 0     -0.000000     -5.000000     -5.000000     10.000000

     1   1 0 0      0.000000      0.000000      0.000000      0.000000
     1   0 1 0     -0.000000     -0.000000     -0.000000      0.000000
     1   0 0 1     -0.678803     -0.423970     -0.423970      0.169138

     2   2 0 0     -4.928041     -5.005971     -5.005971      5.083901
     2   1 1 0     -0.000000     -0.000000     -0.000000      0.000000
     2   1 0 1      0.000000      0.000000      0.000000     -0.000000
     2   0 2 0     -4.928041     -5.005971     -5.005971      5.083901
     2   0 1 1     -0.000000     -0.000000     -0.000000     -0.000000
     2   0 0 2     -7.763879     -4.433918     -4.433918      1.103957


 Parallel integral file used       1 records with       0 large values

 Line search: 
     step= 1.00 grad=-1.0D-02 hess= 3.9D-03 energy=    -56.184596 mode=downhill
 new step= 1.33                   predicted energy=    -56.185023

          --------
          Step   1
          --------


                         Geometry "geometry" -> "geometry"
                         ---------------------------------

 Output coordinates in angstroms (scale by  1.889725989 to convert to a.u.)

  No.       Tag          Charge          X              Y              Z
 ---- ---------------- ---------- -------------- -------------- --------------
    1 N                    7.0000     0.00000000     0.00000000     0.12887003
    2 H                    1.0000     0.67623673     0.67623673    -0.26093147
    3 H                    1.0000     0.24751982    -0.92375655    -0.26093147
    4 H                    1.0000    -0.92375655     0.24751982    -0.26093147

      Atomic Mass 
      ----------- 

      N                 14.003070
      H                  1.007825


 Effective nuclear repulsion energy (a.u.)      11.7189016371

            Nuclear Dipole moment (a.u.) 
            ----------------------------
        X                 Y               Z
 ---------------- ---------------- ----------------
     0.0000000000    -0.0000000000     0.2254364114

      Symmetry information
      --------------------

 Group name             C3v       
 Group number             17
 Group order               6
 No. of unique centers     2

      Symmetry unique atoms

     1    2


                                 NWChem DFT Module
                                 -----------------


                                 H3N1 dft optimize


  Caching 1-el integrals 
  Rotation of axis 

            General Information
            -------------------
          SCF calculation type: DFT
          Wavefunction type:  closed shell.
          No. of atoms     :     4
          No. of electrons :    10
           Alpha electrons :     5
            Beta electrons :     5
          Charge           :     0
          Spin multiplicity:     1
          Use of symmetry is: on ; symmetry adaption is: on 
          Maximum number of iterations:  30
          AO basis - number of functions:    32
                     number of shells:    19
          Convergence on energy requested: 1.00D-06
          Convergence on density requested: 1.00D-05
          Convergence on gradient requested: 5.00D-04

              XC Information
              --------------
          PerdewBurkeErnzerhof Exchange Functional  1.000          

             Grid Information
             ----------------
          Grid used for XC integration:  medium    
          Radial quadrature: Mura-Knowles        
          Angular quadrature: Lebedev. 
          Tag              B.-S. Rad. Rad. Pts. Rad. Cut. Ang. Pts.
          ---              ---------- --------- --------- ---------
          N                   0.65       49           7.0       434
          H                   0.35       45           7.0       434
          Grid pruning is: on 
          Number of quadrature shells:    94
          Spatial weights used:  Erf1

          Convergence Information
          -----------------------
          Convergence aids based upon iterative change in 
          total energy or number of iterations. 
          Levelshifting, if invoked, occurs when the 
          HOMO/LUMO gap drops below (HL_TOL): 1.00D-02
          DIIS, if invoked, will attempt to extrapolate 
          using up to (NFOCK): 10 stored Fock matrices.

                    Damping( 0%)  Levelshifting(0.5)       DIIS
                  --------------- ------------------- ---------------
          dE  on:    start            ASAP                start   
          dE off:    2 iters         30 iters            30 iters 


      Screening Tolerance Information
      -------------------------------
          Density screening/tol_rho: 1.00D-10
          AO Gaussian exp screening on grid/accAOfunc:  14
          CD Gaussian exp screening on grid/accCDfunc:  20
          XC Gaussian exp screening on grid/accXCfunc:  20
          Schwarz screening/accCoul: 1.00D-08


 Loading old vectors from job with title :

H3N1 dft optimize


      Symmetry analysis of molecular orbitals - initial
      -------------------------------------------------

  Numbering of irreducible representations: 

     1 a1          2 a2          3 e       

  Orbital symmetries:

     1 a1          2 a1          3 e           4 e           5 a1      
     6 a1          7 e           8 e           9 a1         10 e       
    11 e          12 a1         13 e          14 e          15 a1      

   Time after variat. SCF:      1.5
   Time prior to 1st pass:      1.5

 #quartets = 6.571D+03 #integrals = 4.227D+04 #direct =  0.0% #cached =100.0%


 Integral file          = ./NH3.aoints.0
 Record size in doubles =  65536        No. of integs per rec  =  43688
 Max. records in memory =      2        Max. records in file   = 188074
 No. of bits per label  =      8        No. of bits per value  =     64


 Grid_pts file          = ./NH3.gridpts.0
 Record size in doubles =  12289        No. of grid_pts per rec  =   3070
 Max. records in memory =     16        Max. recs in file   =   1002987


           Memory utilization after 1st SCF pass: 
           Heap Space remaining (MW):       32.44            32438319
          Stack Space remaining (MW):       32.77            32767696

   convergence    iter        energy       DeltaE   RMS-Dens  Diis-err    time
 ---------------- ----- ----------------- --------- --------- ---------  ------
 d= 0,ls=0.0,diis     1    -56.1847164033 -6.79D+01  1.09D-03  1.22D-03     1.6
 d= 0,ls=0.0,diis     2    -56.1846591128  5.73D-05  7.70D-04  1.77D-03     1.7
 d= 0,ls=0.0,diis     3    -56.1848196889 -1.61D-04  2.86D-04  2.55D-04     1.7
 d= 0,ls=0.0,diis     4    -56.1848453372 -2.56D-05  4.79D-05  1.81D-06     1.8
 d= 0,ls=0.0,diis     5    -56.1848455157 -1.79D-07  2.74D-06  8.85D-09     1.9


         Total DFT energy =      -56.184845515712
      One electron energy =      -99.045593521389
           Coulomb energy =       38.733894384563
    Exchange-Corr. energy =       -7.592048016009
 Nuclear repulsion energy =       11.718901637124

 Numeric. integr. density =        9.999998844195

     Total iterative time =      0.4s



                  Occupations of the irreducible representations
                  ----------------------------------------------

                     irrep           alpha         beta
                     --------     --------     --------
                     a1                3.0          3.0
                     a2                0.0          0.0
                     e                 2.0          2.0


                       DFT Final Molecular Orbital Analysis
                       ------------------------------------

 Vector    1  Occ=2.000000D+00  E=-1.395731D+01  Symmetry=a1
              MO Center=  6.0D-18,  6.2D-18,  1.3D-01, r^2= 2.0D-02
   Bfn.  Coefficient  Atom+Function         Bfn.  Coefficient  Atom+Function  
  ----- ------------  ---------------      ----- ------------  ---------------
     1      0.558522  1 N  s                  2      0.460620  1 N  s          

 Vector    2  Occ=2.000000D+00  E=-7.418945D-01  Symmetry=a1
              MO Center=  4.8D-18,  1.7D-18, -8.1D-02, r^2= 7.0D-01
   Bfn.  Coefficient  Atom+Function         Bfn.  Coefficient  Atom+Function  
  ----- ------------  ---------------      ----- ------------  ---------------
     6      0.487618  1 N  s                 10      0.379262  1 N  s          
     2     -0.173637  1 N  s          

 Vector    3  Occ=2.000000D+00  E=-3.832139D-01  Symmetry=e
              MO Center= -1.4D-01, -1.5D-01, -4.3D-02, r^2= 1.0D+00
   Bfn.  Coefficient  Atom+Function         Bfn.  Coefficient  Atom+Function  
  ----- ------------  ---------------      ----- ------------  ---------------
     8     -0.240352  1 N  py                 7      0.231635  1 N  px         
    28      0.178844  3 H  s                 31     -0.175070  4 H  s          
     4     -0.158409  1 N  py                12     -0.158742  1 N  py         
    27      0.156990  3 H  s                 30     -0.153678  4 H  s          
     3      0.152664  1 N  px                11      0.152985  1 N  px         

 Vector    4  Occ=2.000000D+00  E=-3.832139D-01  Symmetry=e
              MO Center=  1.4D-01,  1.5D-01, -4.3D-02, r^2= 1.0D+00
   Bfn.  Coefficient  Atom+Function         Bfn.  Coefficient  Atom+Function  
  ----- ------------  ---------------      ----- ------------  ---------------
     7      0.240352  1 N  px                 8      0.231635  1 N  py         
    25      0.204332  2 H  s                 24      0.179364  2 H  s          
     3      0.158409  1 N  px                11      0.158742  1 N  px         
     4      0.152664  1 N  py                12      0.152985  1 N  py         

 Vector    5  Occ=2.000000D+00  E=-1.916527D-01  Symmetry=a1
              MO Center= -2.2D-18, -1.7D-18,  2.8D-01, r^2= 1.1D+00
   Bfn.  Coefficient  Atom+Function         Bfn.  Coefficient  Atom+Function  
  ----- ------------  ---------------      ----- ------------  ---------------
    13      0.399473  1 N  pz                 9      0.364760  1 N  pz         
     5      0.255344  1 N  pz                 6      0.205025  1 N  s          
    10      0.196133  1 N  s                 17      0.180620  1 N  pz         

 Vector    6  Occ=0.000000D+00  E= 1.699261D-03  Symmetry=a1
              MO Center= -4.5D-15,  2.9D-15, -7.5D-01, r^2= 4.8D+00
   Bfn.  Coefficient  Atom+Function         Bfn.  Coefficient  Atom+Function  
  ----- ------------  ---------------      ----- ------------  ---------------
    14      2.684741  1 N  s                 10     -0.853041  1 N  s          
    17     -0.691769  1 N  pz                26     -0.639843  2 H  s          
    29     -0.639843  3 H  s                 32     -0.639843  4 H  s          
    13      0.193561  1 N  pz                25      0.193509  2 H  s          
    28      0.193509  3 H  s                 31      0.193509  4 H  s          

 Vector    7  Occ=0.000000D+00  E= 7.917156D-02  Symmetry=e
              MO Center= -6.4D-02,  4.5D-02,  1.9D-01, r^2= 6.5D+00
   Bfn.  Coefficient  Atom+Function         Bfn.  Coefficient  Atom+Function  
  ----- ------------  ---------------      ----- ------------  ---------------
    16      1.358816  1 N  py                12     -0.499215  1 N  py         
    29      0.266239  3 H  s                 26     -0.216943  2 H  s          
     8     -0.171203  1 N  py         

 Vector    8  Occ=0.000000D+00  E= 7.917156D-02  Symmetry=e
              MO Center=  6.4D-02, -4.5D-02,  1.9D-01, r^2= 6.5D+00
   Bfn.  Coefficient  Atom+Function         Bfn.  Coefficient  Atom+Function  
  ----- ------------  ---------------      ----- ------------  ---------------
    15      1.358816  1 N  px                11     -0.499215  1 N  px         
    32      0.278965  4 H  s                 26     -0.182174  2 H  s          
     7     -0.171203  1 N  px         

 Vector    9  Occ=0.000000D+00  E= 1.070431D-01  Symmetry=a1
              MO Center= -2.4D-17, -2.1D-16,  4.6D-01, r^2= 6.3D+00
   Bfn.  Coefficient  Atom+Function         Bfn.  Coefficient  Atom+Function  
  ----- ------------  ---------------      ----- ------------  ---------------
    17      1.483019  1 N  pz                14     -1.094816  1 N  s          
    26      0.783071  2 H  s                 29      0.783071  3 H  s          
    32      0.783071  4 H  s                 10     -0.747393  1 N  s          
    13     -0.376088  1 N  pz         

 Vector   10  Occ=0.000000D+00  E= 1.383020D-01  Symmetry=e
              MO Center= -1.0D-01,  7.4D-03,  4.3D-02, r^2= 4.8D+00
   Bfn.  Coefficient  Atom+Function         Bfn.  Coefficient  Atom+Function  
  ----- ------------  ---------------      ----- ------------  ---------------
    32      2.880475  4 H  s                 29     -1.677466  3 H  s          
    15      1.594845  1 N  px                26     -1.203009  2 H  s          
    11      0.641179  1 N  px                16     -0.594144  1 N  py         
    12     -0.238865  1 N  py                31      0.172006  4 H  s          
     7      0.162282  1 N  px         

 Vector   11  Occ=0.000000D+00  E= 1.383020D-01  Symmetry=e
              MO Center=  1.0D-01, -7.4D-03,  4.3D-02, r^2= 4.8D+00
   Bfn.  Coefficient  Atom+Function         Bfn.  Coefficient  Atom+Function  
  ----- ------------  ---------------      ----- ------------  ---------------
    26      2.631528  2 H  s                 29     -2.357600  3 H  s          
    16     -1.594845  1 N  py                12     -0.641179  1 N  py         
    15     -0.594144  1 N  px                32     -0.273928  4 H  s          
    11     -0.238865  1 N  px                 8     -0.162282  1 N  py         
    25      0.157140  2 H  s          

 Vector   12  Occ=0.000000D+00  E= 1.872968D-01  Symmetry=a1
              MO Center= -3.3D-14,  1.0D-14, -2.5D-01, r^2= 6.1D+00
   Bfn.  Coefficient  Atom+Function         Bfn.  Coefficient  Atom+Function  
  ----- ------------  ---------------      ----- ------------  ---------------
    14      6.656875  1 N  s                 26     -3.069576  2 H  s          
    29     -3.069576  3 H  s                 32     -3.069576  4 H  s          
    10      1.438308  1 N  s                 17     -1.195468  1 N  pz         
    13     -0.579208  1 N  pz         

 Vector   13  Occ=0.000000D+00  E= 4.687513D-01  Symmetry=e
              MO Center=  1.6D-01,  5.6D-02, -1.4D-02, r^2= 4.1D+00
   Bfn.  Coefficient  Atom+Function         Bfn.  Coefficient  Atom+Function  
  ----- ------------  ---------------      ----- ------------  ---------------
    26      3.259037  2 H  s                 29     -2.282696  3 H  s          
    25     -1.653107  2 H  s                 16     -1.511701  1 N  py         
    28      1.157870  3 H  s                 32     -0.976340  4 H  s          
    15     -0.943504  1 N  px                12      0.728075  1 N  py         
    31      0.495237  4 H  s                 11      0.454416  1 N  px         

 Vector   14  Occ=0.000000D+00  E= 4.687513D-01  Symmetry=e
              MO Center= -1.6D-01, -5.6D-02, -1.4D-02, r^2= 4.1D+00
   Bfn.  Coefficient  Atom+Function         Bfn.  Coefficient  Atom+Function  
  ----- ------------  ---------------      ----- ------------  ---------------
    32      3.199521  4 H  s                 29     -2.445296  3 H  s          
    31     -1.622919  4 H  s                 15      1.511701  1 N  px         
    28      1.240347  3 H  s                 16     -0.943504  1 N  py         
    26     -0.754225  2 H  s                 11     -0.728075  1 N  px         
    12      0.454416  1 N  py                25      0.382572  2 H  s          

 Vector   15  Occ=0.000000D+00  E= 5.980102D-01  Symmetry=a1
              MO Center=  2.8D-15,  4.1D-15, -6.1D-01, r^2= 3.4D+00
   Bfn.  Coefficient  Atom+Function         Bfn.  Coefficient  Atom+Function  
  ----- ------------  ---------------      ----- ------------  ---------------
    14      5.312041  1 N  s                 26     -2.938685  2 H  s          
    29     -2.938685  3 H  s                 32     -2.938685  4 H  s          
    25      1.586080  2 H  s                 28      1.586080  3 H  s          
    31      1.586080  4 H  s                 17     -1.318623  1 N  pz         
    10     -0.787946  1 N  s                 13      0.766315  1 N  pz         


 center of mass
 --------------
 x =  -0.00000000 y =  -0.00000000 z =   0.11272470

 moments of inertia (a.u.)
 ------------------
           6.286672535740           0.000000000000          -0.000000000000
           0.000000000000           6.286672535740          -0.000000000000
          -0.000000000000          -0.000000000000           9.874873886586

     Multipole analysis of the density
     ---------------------------------

     L   x y z        total         alpha         beta         nuclear
     -   - - -        -----         -----         ----         -------
     0   0 0 0     -0.000000     -5.000000     -5.000000     10.000000

     1   1 0 0     -0.000000     -0.000000     -0.000000      0.000000
     1   0 1 0      0.000000      0.000000      0.000000     -0.000000
     1   0 0 1     -0.701803     -0.463620     -0.463620      0.225436

     2   2 0 0     -4.943841     -4.921471     -4.921471      4.899101
     2   1 1 0     -0.000000      0.000000      0.000000     -0.000000
     2   1 0 1      0.000000      0.000000      0.000000      0.000000
     2   0 2 0     -4.943841     -4.921471     -4.921471      4.899101
     2   0 1 1     -0.000000     -0.000000     -0.000000      0.000000
     2   0 0 2     -7.703930     -4.424243     -4.424243      1.144555


 Parallel integral file used       1 records with       0 large values



                            NWChem DFT Gradient Module
                            --------------------------


                                 H3N1 dft optimize



  charge          =   0.00
  wavefunction    = closed shell

  Rotation of axis 
  Using symmetry


                         DFT ENERGY GRADIENTS

    atom               coordinates                        gradient
                 x          y          z           x          y          z
   1 N       0.000000   0.000000   0.243529    0.000000   0.000000  -0.001411
   2 H       1.277902   1.277902  -0.493089   -0.001985  -0.001985   0.000470
   3 H       0.467745  -1.745647  -0.493089   -0.000727   0.002712   0.000470
   4 H      -1.745647   0.467745  -0.493089    0.002712  -0.000727   0.000470

                 ----------------------------------------
                 |  Time  |  1-e(secs)   |  2-e(secs)   |
                 ----------------------------------------
                 |  CPU   |       0.00   |       0.07   |
                 ----------------------------------------
                 |  WALL  |       0.00   |       0.07   |
                 ----------------------------------------

  Step       Energy      Delta E   Gmax     Grms     Xrms     Xmax   Walltime
  ---- ---------------- -------- -------- -------- -------- -------- --------
@    1     -56.18484552 -6.7D-03  0.00271  0.00148  0.06876  0.13062      2.3
                                                                    


                                 NWChem DFT Module
                                 -----------------


                                 H3N1 dft optimize


  Caching 1-el integrals 
  Rotation of axis 

            General Information
            -------------------
          SCF calculation type: DFT
          Wavefunction type:  closed shell.
          No. of atoms     :     4
          No. of electrons :    10
           Alpha electrons :     5
            Beta electrons :     5
          Charge           :     0
          Spin multiplicity:     1
          Use of symmetry is: on ; symmetry adaption is: on 
          Maximum number of iterations:  30
          AO basis - number of functions:    32
                     number of shells:    19
          Convergence on energy requested: 1.00D-06
          Convergence on density requested: 1.00D-05
          Convergence on gradient requested: 5.00D-04

              XC Information
              --------------
          PerdewBurkeErnzerhof Exchange Functional  1.000          

             Grid Information
             ----------------
          Grid used for XC integration:  medium    
          Radial quadrature: Mura-Knowles        
          Angular quadrature: Lebedev. 
          Tag              B.-S. Rad. Rad. Pts. Rad. Cut. Ang. Pts.
          ---              ---------- --------- --------- ---------
          N                   0.65       49           7.0       434
          H                   0.35       45           7.0       434
          Grid pruning is: on 
          Number of quadrature shells:    94
          Spatial weights used:  Erf1

          Convergence Information
          -----------------------
          Convergence aids based upon iterative change in 
          total energy or number of iterations. 
          Levelshifting, if invoked, occurs when the 
          HOMO/LUMO gap drops below (HL_TOL): 1.00D-02
          DIIS, if invoked, will attempt to extrapolate 
          using up to (NFOCK): 10 stored Fock matrices.

                    Damping( 0%)  Levelshifting(0.5)       DIIS
                  --------------- ------------------- ---------------
          dE  on:    start            ASAP                start   
          dE off:    2 iters         30 iters            30 iters 


      Screening Tolerance Information
      -------------------------------
          Density screening/tol_rho: 1.00D-10
          AO Gaussian exp screening on grid/accAOfunc:  14
          CD Gaussian exp screening on grid/accCDfunc:  20
          XC Gaussian exp screening on grid/accXCfunc:  20
          Schwarz screening/accCoul: 1.00D-08


 Loading old vectors from job with title :

H3N1 dft optimize


      Symmetry analysis of molecular orbitals - initial
      -------------------------------------------------

  Numbering of irreducible representations: 

     1 a1          2 a2          3 e       

  Orbital symmetries:

     1 a1          2 a1          3 e           4 e           5 a1      
     6 a1          7 e           8 e           9 a1         10 e       
    11 e          12 a1         13 e          14 e          15 a1      

   Time after variat. SCF:      2.1
   Time prior to 1st pass:      2.1

 #quartets = 6.571D+03 #integrals = 4.227D+04 #direct =  0.0% #cached =100.0%


 Integral file          = ./NH3.aoints.0
 Record size in doubles =  65536        No. of integs per rec  =  43688
 Max. records in memory =      2        Max. records in file   = 188074
 No. of bits per label  =      8        No. of bits per value  =     64


 Grid_pts file          = ./NH3.gridpts.0
 Record size in doubles =  12289        No. of grid_pts per rec  =   3070
 Max. records in memory =     16        Max. recs in file   =   1002987


           Memory utilization after 1st SCF pass: 
           Heap Space remaining (MW):       32.44            32438319
          Stack Space remaining (MW):       32.77            32767696

   convergence    iter        energy       DeltaE   RMS-Dens  Diis-err    time
 ---------------- ----- ----------------- --------- --------- ---------  ------
 d= 0,ls=0.0,diis     1    -56.1848682206 -6.79D+01  3.09D-04  1.05D-04     2.3
 d= 0,ls=0.0,diis     2    -56.1848648846  3.34D-06  2.22D-04  1.36D-04     2.3
 d= 0,ls=0.0,diis     3    -56.1848765859 -1.17D-05  8.92D-05  2.59D-05     2.4
 d= 0,ls=0.0,diis     4    -56.1848792148 -2.63D-06  1.41D-05  1.61D-07     2.5
 d= 0,ls=0.0,diis     5    -56.1848792307 -1.59D-08  7.56D-07  6.22D-10     2.6


         Total DFT energy =      -56.184879230699
      One electron energy =      -98.961483699860
           Coulomb energy =       38.691526982699
    Exchange-Corr. energy =       -7.587256225475
 Nuclear repulsion energy =       11.672333711937

 Numeric. integr. density =        9.999998907846

     Total iterative time =      0.5s



                  Occupations of the irreducible representations
                  ----------------------------------------------

                     irrep           alpha         beta
                     --------     --------     --------
                     a1                3.0          3.0
                     a2                0.0          0.0
                     e                 2.0          2.0


                       DFT Final Molecular Orbital Analysis
                       ------------------------------------

 Vector    1  Occ=2.000000D+00  E=-1.395830D+01  Symmetry=a1
              MO Center=  2.7D-18,  5.8D-19,  1.3D-01, r^2= 2.0D-02
   Bfn.  Coefficient  Atom+Function         Bfn.  Coefficient  Atom+Function  
  ----- ------------  ---------------      ----- ------------  ---------------
     1      0.558527  1 N  s                  2      0.460627  1 N  s          

 Vector    2  Occ=2.000000D+00  E=-7.400186D-01  Symmetry=a1
              MO Center=  2.9D-17, -1.4D-16, -8.1D-02, r^2= 7.0D-01
   Bfn.  Coefficient  Atom+Function         Bfn.  Coefficient  Atom+Function  
  ----- ------------  ---------------      ----- ------------  ---------------
     6      0.488133  1 N  s                 10      0.379966  1 N  s          
     2     -0.173771  1 N  s          

 Vector    3  Occ=2.000000D+00  E=-3.825924D-01  Symmetry=e
              MO Center= -1.3D-01,  1.6D-01, -4.4D-02, r^2= 1.0D+00
   Bfn.  Coefficient  Atom+Function         Bfn.  Coefficient  Atom+Function  
  ----- ------------  ---------------      ----- ------------  ---------------
     7      0.332973  1 N  px                11      0.220552  1 N  px         
     3      0.219410  1 N  px                31     -0.194838  4 H  s          
    30     -0.170679  4 H  s                 25      0.151426  2 H  s          

 Vector    4  Occ=2.000000D+00  E=-3.825924D-01  Symmetry=e
              MO Center=  1.3D-01, -1.6D-01, -4.4D-02, r^2= 1.0D+00
   Bfn.  Coefficient  Atom+Function         Bfn.  Coefficient  Atom+Function  
  ----- ------------  ---------------      ----- ------------  ---------------
     8      0.332973  1 N  py                12      0.220552  1 N  py         
     4      0.219410  1 N  py                28     -0.199915  3 H  s          
    27     -0.175127  3 H  s          

 Vector    5  Occ=2.000000D+00  E=-1.910772D-01  Symmetry=a1
              MO Center= -2.7D-17,  7.1D-18,  2.8D-01, r^2= 1.1D+00
   Bfn.  Coefficient  Atom+Function         Bfn.  Coefficient  Atom+Function  
  ----- ------------  ---------------      ----- ------------  ---------------
    13      0.399216  1 N  pz                 9      0.365059  1 N  pz         
     5      0.255621  1 N  pz                 6      0.203449  1 N  s          
    10      0.196561  1 N  s                 17      0.181271  1 N  pz         

 Vector    6  Occ=0.000000D+00  E= 1.774153D-03  Symmetry=a1
              MO Center=  3.6D-16,  2.2D-16, -7.3D-01, r^2= 4.8D+00
   Bfn.  Coefficient  Atom+Function         Bfn.  Coefficient  Atom+Function  
  ----- ------------  ---------------      ----- ------------  ---------------
    14      2.641458  1 N  s                 10     -0.868112  1 N  s          
    17     -0.674901  1 N  pz                26     -0.618247  2 H  s          
    29     -0.618247  3 H  s                 32     -0.618247  4 H  s          
    13      0.195732  1 N  pz                25      0.193399  2 H  s          
    28      0.193399  3 H  s                 31      0.193399  4 H  s          

 Vector    7  Occ=0.000000D+00  E= 7.898464D-02  Symmetry=e
              MO Center= -6.9D-02, -2.8D-02,  1.9D-01, r^2= 6.5D+00
   Bfn.  Coefficient  Atom+Function         Bfn.  Coefficient  Atom+Function  
  ----- ------------  ---------------      ----- ------------  ---------------
    16      1.132765  1 N  py                15      0.748232  1 N  px         
    12     -0.421743  1 N  py                11     -0.278576  1 N  px         
    26     -0.266145  2 H  s                 29      0.180191  3 H  s          

 Vector    8  Occ=0.000000D+00  E= 7.898464D-02  Symmetry=e
              MO Center=  6.9D-02,  2.8D-02,  1.9D-01, r^2= 6.5D+00
   Bfn.  Coefficient  Atom+Function         Bfn.  Coefficient  Atom+Function  
  ----- ------------  ---------------      ----- ------------  ---------------
    15      1.132765  1 N  px                16     -0.748232  1 N  py         
    11     -0.421743  1 N  px                12      0.278576  1 N  py         
    32      0.257692  4 H  s                 29     -0.203284  3 H  s          

 Vector    9  Occ=0.000000D+00  E= 1.067928D-01  Symmetry=a1
              MO Center=  1.7D-15,  2.4D-15,  4.2D-01, r^2= 6.4D+00
   Bfn.  Coefficient  Atom+Function         Bfn.  Coefficient  Atom+Function  
  ----- ------------  ---------------      ----- ------------  ---------------
    17      1.489393  1 N  pz                14     -1.143314  1 N  s          
    26      0.801152  2 H  s                 29      0.801152  3 H  s          
    32      0.801152  4 H  s                 10     -0.745634  1 N  s          
    13     -0.374737  1 N  pz         

 Vector   10  Occ=0.000000D+00  E= 1.372961D-01  Symmetry=e
              MO Center= -9.3D-02, -1.6D-02,  4.8D-02, r^2= 4.8D+00
   Bfn.  Coefficient  Atom+Function         Bfn.  Coefficient  Atom+Function  
  ----- ------------  ---------------      ----- ------------  ---------------
    32      2.810251  4 H  s                 29     -1.936549  3 H  s          
    15      1.517226  1 N  px                26     -0.873702  2 H  s          
    16     -0.783687  1 N  py                11      0.603255  1 N  px         
    12     -0.311597  1 N  py                31      0.168585  4 H  s          
     7      0.153679  1 N  px         

 Vector   11  Occ=0.000000D+00  E= 1.372961D-01  Symmetry=e
              MO Center=  9.3D-02,  1.6D-02,  4.8D-02, r^2= 4.8D+00
   Bfn.  Coefficient  Atom+Function         Bfn.  Coefficient  Atom+Function  
  ----- ------------  ---------------      ----- ------------  ---------------
    26      2.740567  2 H  s                 29     -2.126931  3 H  s          
    16     -1.517226  1 N  py                15     -0.783687  1 N  px         
    32     -0.613635  4 H  s                 12     -0.603255  1 N  py         
    11     -0.311597  1 N  px                25      0.164405  2 H  s          
     8     -0.153679  1 N  py         

 Vector   12  Occ=0.000000D+00  E= 1.854318D-01  Symmetry=a1
              MO Center=  2.0D-14, -1.5D-14, -2.3D-01, r^2= 6.1D+00
   Bfn.  Coefficient  Atom+Function         Bfn.  Coefficient  Atom+Function  
  ----- ------------  ---------------      ----- ------------  ---------------
    14      6.618363  1 N  s                 26     -3.043334  2 H  s          
    29     -3.043334  3 H  s                 32     -3.043334  4 H  s          
    10      1.400337  1 N  s                 17     -1.167967  1 N  pz         
    13     -0.573864  1 N  pz         

 Vector   13  Occ=0.000000D+00  E= 4.677597D-01  Symmetry=e
              MO Center=  1.8D-01,  3.2D-02, -2.0D-02, r^2= 4.1D+00
   Bfn.  Coefficient  Atom+Function         Bfn.  Coefficient  Atom+Function  
  ----- ------------  ---------------      ----- ------------  ---------------
    26      3.191557  2 H  s                 29     -2.462431  3 H  s          
    25     -1.614671  2 H  s                 16     -1.579544  1 N  py         
    28      1.245792  3 H  s                 15     -0.825449  1 N  px         
    12      0.749180  1 N  py                32     -0.729126  4 H  s          
    11      0.391512  1 N  px                31      0.368879  4 H  s          

 Vector   14  Occ=0.000000D+00  E= 4.677597D-01  Symmetry=e
              MO Center= -1.8D-01, -3.2D-02, -2.0D-02, r^2= 4.1D+00
   Bfn.  Coefficient  Atom+Function         Bfn.  Coefficient  Atom+Function  
  ----- ------------  ---------------      ----- ------------  ---------------
    32      3.264331  4 H  s                 29     -2.263607  3 H  s          
    31     -1.651490  4 H  s                 15      1.579544  1 N  px         
    28      1.145203  3 H  s                 26     -1.000724  2 H  s          
    16     -0.825449  1 N  py                11     -0.749180  1 N  px         
    25      0.506286  2 H  s                 12      0.391512  1 N  py         

 Vector   15  Occ=0.000000D+00  E= 5.943669D-01  Symmetry=a1
              MO Center=  1.7D-14,  3.4D-14, -6.0D-01, r^2= 3.4D+00
   Bfn.  Coefficient  Atom+Function         Bfn.  Coefficient  Atom+Function  
  ----- ------------  ---------------      ----- ------------  ---------------
    14      5.350496  1 N  s                 26     -2.962807  2 H  s          
    29     -2.962807  3 H  s                 32     -2.962807  4 H  s          
    25      1.564239  2 H  s                 28      1.564239  3 H  s          
    31      1.564239  4 H  s                 17     -1.309063  1 N  pz         
    13      0.721938  1 N  pz                10     -0.715800  1 N  s          


 center of mass
 --------------
 x =  -0.00000000 y =  -0.00000000 z =   0.11011354

 moments of inertia (a.u.)
 ------------------
           6.324608708412          -0.000000000000          -0.000000000000
          -0.000000000000           6.324608708412          -0.000000000000
          -0.000000000000          -0.000000000000           9.984063689398

     Multipole analysis of the density
     ---------------------------------

     L   x y z        total         alpha         beta         nuclear
     -   - - -        -----         -----         ----         -------
     0   0 0 0     -0.000000     -5.000000     -5.000000     10.000000

     1   1 0 0     -0.000000     -0.000000     -0.000000      0.000000
     1   0 1 0     -0.000000     -0.000000     -0.000000     -0.000000
     1   0 0 1     -0.694407     -0.449658     -0.449658      0.204909

     2   2 0 0     -4.938297     -4.945785     -4.945785      4.953272
     2   1 1 0     -0.000000     -0.000000     -0.000000     -0.000000
     2   1 0 1      0.000000      0.000000      0.000000      0.000000
     2   0 2 0     -4.938297     -4.945785     -4.945785      4.953272
     2   0 1 1     -0.000000     -0.000000     -0.000000      0.000000
     2   0 0 2     -7.721944     -4.425773     -4.425773      1.129603


 Parallel integral file used       1 records with       0 large values

 Line search: 
     step= 1.00 grad=-7.7D-05 hess= 4.4D-05 energy=    -56.184879 mode=downhill
 new step= 0.89                   predicted energy=    -56.184880

          --------
          Step   2
          --------


                         Geometry "geometry" -> "geometry"
                         ---------------------------------

 Output coordinates in angstroms (scale by  1.889725989 to convert to a.u.)

  No.       Tag          Charge          X              Y              Z
 ---- ---------------- ---------- -------------- -------------- --------------
    1 N                    7.0000     0.00000000     0.00000000     0.12726778
    2 H                    1.0000     0.67953645     0.67953645    -0.26039738
    3 H                    1.0000     0.24872760    -0.92826405    -0.26039738
    4 H                    1.0000    -0.92826405     0.24872760    -0.26039738

      Atomic Mass 
      ----------- 

      N                 14.003070
      H                  1.007825


 Effective nuclear repulsion energy (a.u.)      11.6776779927

            Nuclear Dipole moment (a.u.) 
            ----------------------------
        X                 Y               Z
 ---------------- ---------------- ----------------
     0.0000000000     0.0000000000     0.2072695719

      Symmetry information
      --------------------

 Group name             C3v       
 Group number             17
 Group order               6
 No. of unique centers     2

      Symmetry unique atoms

     1    2


                                 NWChem DFT Module
                                 -----------------


                                 H3N1 dft optimize


  Caching 1-el integrals 
  Rotation of axis 

            General Information
            -------------------
          SCF calculation type: DFT
          Wavefunction type:  closed shell.
          No. of atoms     :     4
          No. of electrons :    10
           Alpha electrons :     5
            Beta electrons :     5
          Charge           :     0
          Spin multiplicity:     1
          Use of symmetry is: on ; symmetry adaption is: on 
          Maximum number of iterations:  30
          AO basis - number of functions:    32
                     number of shells:    19
          Convergence on energy requested: 1.00D-06
          Convergence on density requested: 1.00D-05
          Convergence on gradient requested: 5.00D-04

              XC Information
              --------------
          PerdewBurkeErnzerhof Exchange Functional  1.000          

             Grid Information
             ----------------
          Grid used for XC integration:  medium    
          Radial quadrature: Mura-Knowles        
          Angular quadrature: Lebedev. 
          Tag              B.-S. Rad. Rad. Pts. Rad. Cut. Ang. Pts.
          ---              ---------- --------- --------- ---------
          N                   0.65       49           7.0       434
          H                   0.35       45           7.0       434
          Grid pruning is: on 
          Number of quadrature shells:    94
          Spatial weights used:  Erf1

          Convergence Information
          -----------------------
          Convergence aids based upon iterative change in 
          total energy or number of iterations. 
          Levelshifting, if invoked, occurs when the 
[...]
  library file name is: </Users/chenzheng/Google Drive/nano266/resources/nwchem_basis/>
  
                      Basis "ao basis" -> "" (cartesian)
                      -----
  H (Hydrogen)
  ------------
            Exponent  Coefficients 
       -------------- ---------------------------------------------------------
  1 S  1.87311370E+01  0.033495
  1 S  2.82539370E+00  0.234727
  1 S  6.40121700E-01  0.813757

  2 S  1.61277800E-01  1.000000

  N (Nitrogen)
  ------------
            Exponent  Coefficients 
       -------------- ---------------------------------------------------------
  1 S  4.17351100E+03  0.001835
  1 S  6.27457900E+02  0.013995
  1 S  1.42902100E+02  0.068587
  1 S  4.02343300E+01  0.232241
  1 S  1.28202100E+01  0.469070
  1 S  4.39043700E+00  0.360455

  2 S  1.16263580E+01 -0.114961
  2 S  2.71628000E+00 -0.169118
  2 S  7.72218000E-01  1.145852

  3 P  1.16263580E+01  0.067580
  3 P  2.71628000E+00  0.323907
  3 P  7.72218000E-01  0.740895

  4 S  2.12031300E-01  1.000000

  5 P  2.12031300E-01  1.000000

  6 S  6.39000000E-02  1.000000

  7 P  6.39000000E-02  1.000000

  8 D  8.00000000E-01  1.000000



 Summary of "ao basis" -> "" (cartesian)
 ------------------------------------------------------------------------------
       Tag                 Description            Shells   Functions and Types
 ---------------- ------------------------------  ------  ---------------------
 H                          6-31+G*                  2        2   2s
 N                          6-31+G*                  8       19   4s3p1d


  xc_inp: hfexch multiplicative factor not found.

                                 NWChem DFT Module
                                 -----------------


                                  H3N1 dft energy


  Caching 1-el integrals 
  Rotation of axis 
  itol2e modified to match energy
  convergence criterion.

            General Information
            -------------------
          SCF calculation type: DFT
          Wavefunction type:  closed shell.
          No. of atoms     :     4
          No. of electrons :    10
           Alpha electrons :     5
            Beta electrons :     5
          Charge           :     0
          Spin multiplicity:     1
          Use of symmetry is: on ; symmetry adaption is: on 
          Maximum number of iterations:  30
          AO basis - number of functions:    25
                     number of shells:    14
          Convergence on energy requested: 1.00D-07
          Convergence on density requested: 1.00D-05
          Convergence on gradient requested: 5.00D-04

              XC Information
              --------------
                     Hartree-Fock (Exact) Exchange  1.000          

          Convergence Information
          -----------------------
          Convergence aids based upon iterative change in 
          total energy or number of iterations. 
          Levelshifting, if invoked, occurs when the 
          HOMO/LUMO gap drops below (HL_TOL): 1.00D-02
          DIIS, if invoked, will attempt to extrapolate 
          using up to (NFOCK): 10 stored Fock matrices.

                    Damping( 0%)  Levelshifting(0.5)       DIIS
                  --------------- ------------------- ---------------
          dE  on:    start            ASAP                start   
          dE off:    2 iters         30 iters            30 iters 


      Screening Tolerance Information
      -------------------------------
          Density screening/tol_rho: 1.00D-11
          AO Gaussian exp screening on grid/accAOfunc:  16
          CD Gaussian exp screening on grid/accCDfunc:  20
          XC Gaussian exp screening on grid/accXCfunc:  20
          Schwarz screening/accCoul: 1.00D-08


 !! nbf/nmo/basis-name mismatch 
           nbf=  25 nbf_file=  32
           nmo=  25nmo_file=  32
           basis="ao basis" basis_file="ao basis"

  Either an incorrect movecs file was specified, or linear dependence has changed,
  or the basis name was changed. 

 Loading old vectors from job with title :

H3N1 dft freq


  Load of old vectors failed.   Forcing atomic density guess


      Superposition of Atomic Density Guess
      -------------------------------------

 Sum of atomic energies:         -55.79033969

      Non-variational initial energy
      ------------------------------

 Total energy =     -56.145447
 1-e energy   =     -97.706750
 2-e energy   =      29.880987
 HOMO         =      -0.372460
 LUMO         =       0.063522


      Symmetry analysis of molecular orbitals - initial
      -------------------------------------------------

  Numbering of irreducible representations: 

     1 a1          2 a2          3 e       

  Orbital symmetries:

     1 a1          2 a1          3 e           4 e           5 a1      
     6 a1          7 e           8 e           9 a1         10 e       
    11 e          12 a1         13 e          14 e          15 a1      

   Time after variat. SCF:     27.3
   Time prior to 1st pass:     27.3

 #quartets = 2.175D+03 #integrals = 1.621D+04 #direct =  0.0% #cached =100.0%


 Integral file          = ./NH3.aoints.0
 Record size in doubles =  65536        No. of integs per rec  =  43688
 Max. records in memory =      2        Max. records in file   = 188076
 No. of bits per label  =      8        No. of bits per value  =     64


           Memory utilization after 1st SCF pass: 
           Heap Space remaining (MW):       32.64            32635186
          Stack Space remaining (MW):       32.77            32767739

   convergence    iter        energy       DeltaE   RMS-Dens  Diis-err    time
 ---------------- ----- ----------------- --------- --------- ---------  ------
 d= 0,ls=0.0,diis     1    -56.1618767117 -6.78D+01  1.16D-02  2.03D-01    27.3
 d= 0,ls=0.0,diis     2    -56.1818946809 -2.00D-02  3.98D-03  4.35D-02    27.3
 d= 0,ls=0.0,diis     3    -56.1864566294 -4.56D-03  1.13D-03  1.45D-03    27.3
 d= 0,ls=0.0,diis     4    -56.1866819150 -2.25D-04  3.56D-04  3.59D-05    27.3
 d= 0,ls=0.0,diis     5    -56.1866924871 -1.06D-05  1.32D-04  1.77D-06    27.3
 d= 0,ls=0.0,diis     6    -56.1866934521 -9.65D-07  4.23D-05  1.41D-07    27.3
 d= 0,ls=0.0,diis     7    -56.1866935341 -8.21D-08  5.65D-06  2.12D-09    27.3


         Total DFT energy =      -56.186693534144
      One electron energy =      -99.000887016949
           Coulomb energy =       38.750237323529
    Exchange-Corr. energy =       -7.616358713895
 Nuclear repulsion energy =       11.680314873172

 Numeric. integr. density =        0.000000000000

     Total iterative time =      0.1s



                  Occupations of the irreducible representations
                  ----------------------------------------------

                     irrep           alpha         beta
                     --------     --------     --------
                     a1                3.0          3.0
                     a2                0.0          0.0
                     e                 2.0          2.0


                       DFT Final Molecular Orbital Analysis
                       ------------------------------------

 Vector    1  Occ=2.000000D+00  E=-1.556014D+01  Symmetry=a1
              MO Center=  4.5D-20, -2.9D-18,  1.3D-01, r^2= 2.0D-02
   Bfn.  Coefficient  Atom+Function         Bfn.  Coefficient  Atom+Function  
  ----- ------------  ---------------      ----- ------------  ---------------
     1      0.995016  1 N  s          

 Vector    2  Occ=2.000000D+00  E=-1.133573D+00  Symmetry=a1
              MO Center=  1.2D-16, -1.8D-16, -5.2D-02, r^2= 7.1D-01
   Bfn.  Coefficient  Atom+Function         Bfn.  Coefficient  Atom+Function  
  ----- ------------  ---------------      ----- ------------  ---------------
     6      0.459772  1 N  s                  2      0.410692  1 N  s          
     1     -0.197984  1 N  s          

 Vector    3  Occ=2.000000D+00  E=-6.234444D-01  Symmetry=e
              MO Center=  1.3D-01,  1.5D-01, -4.3D-02, r^2= 9.9D-01
   Bfn.  Coefficient  Atom+Function         Bfn.  Coefficient  Atom+Function  
  ----- ------------  ---------------      ----- ------------  ---------------
     3      0.342455  1 N  px                 4      0.322854  1 N  py         
    20      0.273392  2 H  s                  7      0.207110  1 N  px         
     8      0.195256  1 N  py                21      0.162535  2 H  s          

 Vector    4  Occ=2.000000D+00  E=-6.234444D-01  Symmetry=e
              MO Center= -1.3D-01, -1.5D-01, -4.3D-02, r^2= 9.9D-01
   Bfn.  Coefficient  Atom+Function         Bfn.  Coefficient  Atom+Function  
  ----- ------------  ---------------      ----- ------------  ---------------
     4     -0.342455  1 N  py                 3      0.322854  1 N  px         
    22      0.240792  3 H  s                 24     -0.232737  4 H  s          
     8     -0.207110  1 N  py                 7      0.195256  1 N  px         

 Vector    5  Occ=2.000000D+00  E=-4.259627D-01  Symmetry=a1
              MO Center= -9.3D-17,  8.5D-18,  2.6D-01, r^2= 9.6D-01
   Bfn.  Coefficient  Atom+Function         Bfn.  Coefficient  Atom+Function  
  ----- ------------  ---------------      ----- ------------  ---------------
     5      0.550626  1 N  pz                 9      0.451857  1 N  pz         
     6      0.205602  1 N  s                  2      0.155108  1 N  s          

 Vector    6  Occ=0.000000D+00  E= 1.140257D-01  Symmetry=a1
              MO Center= -3.9D-16, -2.5D-15, -8.4D-01, r^2= 5.0D+00
   Bfn.  Coefficient  Atom+Function         Bfn.  Coefficient  Atom+Function  
  ----- ------------  ---------------      ----- ------------  ---------------
    10      1.915166  1 N  s                 13     -0.571107  1 N  pz         
     6     -0.565523  1 N  s                 21     -0.381515  2 H  s          
    23     -0.381515  3 H  s                 25     -0.381515  4 H  s          

 Vector    7  Occ=0.000000D+00  E= 1.710198D-01  Symmetry=e
              MO Center=  1.7D-01,  3.4D-02,  2.6D-01, r^2= 7.0D+00
   Bfn.  Coefficient  Atom+Function         Bfn.  Coefficient  Atom+Function  
  ----- ------------  ---------------      ----- ------------  ---------------
    11      1.216836  1 N  px                12     -0.655135  1 N  py         
    25      0.413567  4 H  s                 23     -0.291433  3 H  s          
     7     -0.268379  1 N  px         

 Vector    8  Occ=0.000000D+00  E= 1.710198D-01  Symmetry=e
              MO Center= -1.7D-01, -3.4D-02,  2.6D-01, r^2= 7.0D+00
   Bfn.  Coefficient  Atom+Function         Bfn.  Coefficient  Atom+Function  
  ----- ------------  ---------------      ----- ------------  ---------------
    12      1.216836  1 N  py                11      0.655135  1 N  px         
    21     -0.407032  2 H  s                 23      0.309287  3 H  s          
     8     -0.268379  1 N  py         

 Vector    9  Occ=0.000000D+00  E= 2.037287D-01  Symmetry=a1
              MO Center= -5.5D-16, -5.6D-16,  8.7D-01, r^2= 5.9D+00
   Bfn.  Coefficient  Atom+Function         Bfn.  Coefficient  Atom+Function  
  ----- ------------  ---------------      ----- ------------  ---------------
    13      1.197530  1 N  pz                 6     -0.709053  1 N  s          
     9     -0.407849  1 N  pz                10      0.325915  1 N  s          
    21      0.216913  2 H  s                 23      0.216913  3 H  s          
    25      0.216913  4 H  s                  5     -0.156091  1 N  pz         

 Vector   10  Occ=0.000000D+00  E= 3.422432D-01  Symmetry=e
              MO Center= -2.4D-01, -2.6D-01, -1.6D-01, r^2= 3.0D+00
   Bfn.  Coefficient  Atom+Function         Bfn.  Coefficient  Atom+Function  
  ----- ------------  ---------------      ----- ------------  ---------------
    23      1.785449  3 H  s                 25     -1.760367  4 H  s          
     8      0.802666  1 N  py                 7     -0.783236  1 N  px         
    12      0.454138  1 N  py                11     -0.443145  1 N  px         
     4      0.210391  1 N  py                 3     -0.205298  1 N  px         

 Vector   11  Occ=0.000000D+00  E= 3.422432D-01  Symmetry=e
              MO Center=  2.4D-01,  2.6D-01, -1.6D-01, r^2= 3.0D+00
   Bfn.  Coefficient  Atom+Function         Bfn.  Coefficient  Atom+Function  
  ----- ------------  ---------------      ----- ------------  ---------------
    21      2.047177  2 H  s                 25     -1.045310  4 H  s          
    23     -1.001867  3 H  s                  7     -0.802666  1 N  px         
     8     -0.783236  1 N  py                11     -0.454138  1 N  px         
    12     -0.443145  1 N  py                 3     -0.210391  1 N  px         
     4     -0.205298  1 N  py         

 Vector   12  Occ=0.000000D+00  E= 3.884882D-01  Symmetry=a1
              MO Center=  1.6D-15,  1.2D-15, -3.6D-01, r^2= 4.3D+00
   Bfn.  Coefficient  Atom+Function         Bfn.  Coefficient  Atom+Function  
  ----- ------------  ---------------      ----- ------------  ---------------
    10      2.584934  1 N  s                  6      2.177571  1 N  s          
    21     -1.983000  2 H  s                 23     -1.983000  3 H  s          
    25     -1.983000  4 H  s                  9     -0.783350  1 N  pz         
    13     -0.498414  1 N  pz                 5     -0.168608  1 N  pz         

 Vector   13  Occ=0.000000D+00  E= 1.090799D+00  Symmetry=e
              MO Center=  6.8D-02,  5.8D-02,  1.9D-01, r^2= 2.3D+00
   Bfn.  Coefficient  Atom+Function         Bfn.  Coefficient  Atom+Function  
  ----- ------------  ---------------      ----- ------------  ---------------
     7      1.053433  1 N  px                 8     -0.972051  1 N  py         
    11     -0.549727  1 N  px                24      0.549681  4 H  s          
    22     -0.524757  3 H  s                  3     -0.515343  1 N  px         
    12      0.507258  1 N  py                 4      0.475530  1 N  py         
    25     -0.406598  4 H  s                 23      0.388161  3 H  s          

 Vector   14  Occ=0.000000D+00  E= 1.090799D+00  Symmetry=e
              MO Center= -6.8D-02, -5.8D-02,  1.9D-01, r^2= 2.3D+00
   Bfn.  Coefficient  Atom+Function         Bfn.  Coefficient  Atom+Function  
  ----- ------------  ---------------      ----- ------------  ---------------
     8      1.053433  1 N  py                 7      0.972051  1 N  px         
    20     -0.620327  2 H  s                 12     -0.549727  1 N  py         
     4     -0.515343  1 N  py                11     -0.507258  1 N  px         
     3     -0.475530  1 N  px                21      0.458855  2 H  s          
    22      0.331749  3 H  s                 24      0.288579  4 H  s          

 Vector   15  Occ=0.000000D+00  E= 1.149899D+00  Symmetry=a1
              MO Center= -9.1D-16, -9.8D-16,  2.3D-01, r^2= 1.9D+00
   Bfn.  Coefficient  Atom+Function         Bfn.  Coefficient  Atom+Function  
  ----- ------------  ---------------      ----- ------------  ---------------
     9      1.565715  1 N  pz                 5     -1.023658  1 N  pz         
    13     -0.529013  1 N  pz                10     -0.380655  1 N  s          
     6     -0.336990  1 N  s                 21      0.275379  2 H  s          
    23      0.275379  3 H  s                 25      0.275379  4 H  s          


 center of mass
 --------------
 x =   0.00000000 y =   0.00000000 z =   0.10864138

 moments of inertia (a.u.)
 ------------------
           6.312589578473          -0.000000000000           0.000000000000
          -0.000000000000           6.312589578473           0.000000000000
           0.000000000000           0.000000000000           9.978718556405

     Multipole analysis of the density
     ---------------------------------

     L   x y z        total         alpha         beta         nuclear
     -   - - -        -----         -----         ----         -------
     0   0 0 0     -0.000000     -5.000000     -5.000000     10.000000

     1   1 0 0      0.000000      0.000000      0.000000      0.000000
     1   0 1 0     -0.000000     -0.000000     -0.000000      0.000000
     1   0 0 1     -0.760589     -0.476963     -0.476963      0.193336

     2   2 0 0     -4.612029     -4.781325     -4.781325      4.950621
     2   1 1 0     -0.000000     -0.000000     -0.000000      0.000000
     2   1 0 1      0.000000      0.000000      0.000000     -0.000000
     2   0 2 0     -4.612029     -4.781325     -4.781325      4.950621
     2   0 1 1     -0.000000     -0.000000     -0.000000     -0.000000
     2   0 0 2     -7.174675     -4.147962     -4.147962      1.121248


 Parallel integral file used       1 records with       0 large values


 Task  times  cpu:        0.1s     wall:        0.1s
 Summary of allocated global arrays
-----------------------------------
  No active global arrays



                         GA Statistics for process    0
                         ------------------------------

       create   destroy   get      put      acc     scatter   gather  read&inc
calls: 2163     2163     4.23e+05 3.31e+04 2.02e+05  362        0     4614     
number of processes/call 1.00e+00 1.00e+00 1.00e+00 1.00e+00 0.00e+00
bytes total:             2.17e+08 1.68e+07 1.27e+08 2.62e+06 0.00e+00 3.69e+04
bytes remote:            0.00e+00 0.00e+00 0.00e+00 0.00e+00 0.00e+00 0.00e+00
Max memory consumed for GA by this process: 892672 bytes
MA_summarize_allocated_blocks: starting scan ...
MA_summarize_allocated_blocks: scan completed: 0 heap blocks, 0 stack blocks
MA usage statistics:

	allocation statistics:
					      heap	     stack
					      ----	     -----
	current number of blocks	         0	         0
	maximum number of blocks	        26	        52
	current total bytes		         0	         0
	maximum total bytes		   8470208	  77747440
	maximum total K-bytes		      8471	     77748
	maximum total M-bytes		         9	        78


                                NWChem Input Module
                                -------------------





                                     CITATION
                                     --------
                Please cite the following reference when publishing
                           results obtained with NWChem:

                 M. Valiev, E.J. Bylaska, N. Govind, K. Kowalski,
              T.P. Straatsma, H.J.J. van Dam, D. Wang, J. Nieplocha,
                        E. Apra, T.L. Windus, W.A. de Jong
                 "NWChem: a comprehensive and scalable open-source
                  solution for large scale molecular simulations"
                      Comput. Phys. Commun. 181, 1477 (2010)
                           doi:10.1016/j.cpc.2010.04.018

                              AUTHORS & CONTRIBUTORS
                              ----------------------
          E. Apra, E. J. Bylaska, W. A. de Jong, N. Govind, K. Kowalski,
       T. P. Straatsma, M. Valiev, H. J. J. van Dam, D. Wang, T. L. Windus,
        J. Hammond, J. Autschbach, K. Bhaskaran-Nair, J. Brabec, K. Lopata,
     F. Aquino, S. Hirata, M. T. Hackler, J. Mullin, P. Nichols, R. Peverati,
    J. Pittner, Y. Zhao, P.-D. Fan, R. J. Harrison, M. Dupuis, D. Silverstein,
    D. M. A. Smith, J. Nieplocha, V. Tipparaju, M. Krishnan, B. E. Van Kuiken,
        A. Vazquez-Mayagoitia, L. Jensen, M. Swart, Q. Wu, T. Van Voorhis,
     A. A. Auer, M. Nooijen, L. D. Crosby, E. Brown, G. Cisneros, G. I. Fann,
     H. Fruchtl, J. Garza, K. Hirao, R. Kendall, J. A. Nichols, K. Tsemekhman,
      K. Wolinski, J. Anchell, D. Bernholdt, P. Borowski, T. Clark, D. Clerc,
      H. Dachsel, M. Deegan, K. Dyall, D. Elwood, E. Glendening, M. Gutowski,
      A. Hess, J. Jaffe, B. Johnson, J. Ju, R. Kobayashi, R. Kutteh, Z. Lin,
   R. Littlefield, X. Long, B. Meng, T. Nakajima, S. Niu, L. Pollack, M. Rosing,
   K. Glaesemann, G. Sandrone, M. Stave, H. Taylor, G. Thomas, J. H. van Lenthe,
                                A. Wong, Z. Zhang.

 Total times  cpu:       27.4s     wall:       28.2s
