 argument  1 = NH3.nw
                                         
                                         


              Northwest Computational Chemistry Package (NWChem) 6.3
              ------------------------------------------------------


                    Environmental Molecular Sciences Laboratory
                       Pacific Northwest National Laboratory
                                Richland, WA 99352

                              Copyright (c) 1994-2012
                       Pacific Northwest National Laboratory
                            Battelle Memorial Institute

             NWChem is an open-source computational chemistry package
                        distributed under the terms of the
                      Educational Community License (ECL) 2.0
             A copy of the license is included with this distribution
                              in the LICENSE.TXT file

                                  ACKNOWLEDGMENT
                                  --------------

            This software and its documentation were developed at the
            EMSL at Pacific Northwest National Laboratory, a multiprogram
            national laboratory, operated for the U.S. Department of Energy
            by Battelle under Contract Number DE-AC05-76RL01830. Support
            for this work was provided by the Department of Energy Office
            of Biological and Environmental Research, Office of Basic
            Energy Sciences, and the Office of Advanced Scientific Computing.


           Job information
           ---------------

    hostname        = ChensPro.local
    program         = nwchem
    date            = Wed Apr 15 10:30:41 2015

    compiled        = Sat_Jul_20_13:52:43_2013
    source          = /Users/shyuepingong/Software/nwchem-6.3
    nwchem branch   = 6.3
    nwchem revision = 24277
    ga revision     = 10379
    input           = NH3.nw
    prefix          = NH3.
    data base       = ./NH3.db
    status          = startup
    nproc           =        1
    time left       =     -1s



           Memory information
           ------------------

    heap     =   32768001 doubles =    250.0 Mbytes
    stack    =   32768001 doubles =    250.0 Mbytes
    global   =   65536000 doubles =    500.0 Mbytes (distinct from heap & stack)
    total    =  131072002 doubles =   1000.0 Mbytes
    verify   = yes
    hardfail = no 


           Directory information
           ---------------------

  0 permanent = .
  0 scratch   = .




                                NWChem Input Module
                                -------------------



 Scaling coordinates for geometry "geometry" by  1.889725989
 (inverse scale =  0.529177249)

 C3V symmetry detected


                             Geometry "geometry" -> ""
                             -------------------------

 Output coordinates in angstroms (scale by  1.889725989 to convert to a.u.)

  No.       Tag          Charge          X              Y              Z
 ---- ---------------- ---------- -------------- -------------- --------------
    1 N                    7.0000     0.00000000     0.00000000     0.10898739
    2 H                    1.0000     0.72683573     0.72683573    -0.25430392
    3 H                    1.0000     0.26604034    -0.99287607    -0.25430392
    4 H                    1.0000    -0.99287607     0.26604034    -0.25430392

      Atomic Mass 
      ----------- 

      N                 14.003070
      H                  1.007825


 Effective nuclear repulsion energy (a.u.)      11.0848640562

            Nuclear Dipole moment (a.u.) 
            ----------------------------
        X                 Y               Z
 ---------------- ---------------- ----------------
     0.0000000000    -0.0000000000     0.0000000000

      Symmetry information
      --------------------

 Group name             C3v       
 Group number             17
 Group order               6
 No. of unique centers     2

      Symmetry unique atoms

     1    2


            XYZ format geometry
            -------------------
     4
 geometry
 N                     0.00000000     0.00000000     0.10898739
 H                     0.72683573     0.72683573    -0.25430392
 H                     0.26604034    -0.99287607    -0.25430392
 H                    -0.99287607     0.26604034    -0.25430392

 ==============================================================================
                                internuclear distances
 ------------------------------------------------------------------------------
       center one      |      center two      | atomic units |  angstroms
 ------------------------------------------------------------------------------
    2 H                |   1 N                |     2.06020  |     1.09021
    3 H                |   1 N                |     2.06020  |     1.09021
    4 H                |   1 N                |     2.06020  |     1.09021
 ------------------------------------------------------------------------------
                         number of included internuclear distances:          3
 ==============================================================================



 ==============================================================================
                                 internuclear angles
 ------------------------------------------------------------------------------
        center 1       |       center 2       |       center 3       |  degrees
 ------------------------------------------------------------------------------
    2 H                |   1 N                |   3 H                |   109.48
    2 H                |   1 N                |   4 H                |   109.48
    3 H                |   1 N                |   4 H                |   109.48
 ------------------------------------------------------------------------------
                            number of included internuclear angles:          3
 ==============================================================================



                                 H3N1 dft optimize
                                 -----------------
  library name resolved from: environment
  library file name is: </Users/chenzheng/Google Drive/nano266/resources/nwchem_basis/>
  
                      Basis "ao basis" -> "" (cartesian)
                      -----
  H (Hydrogen)
  ------------
            Exponent  Coefficients 
       -------------- ---------------------------------------------------------
  1 S  1.87311370E+01  0.033495
  1 S  2.82539370E+00  0.234727
  1 S  6.40121700E-01  0.813757

  2 S  1.61277800E-01  1.000000

  N (Nitrogen)
  ------------
            Exponent  Coefficients 
       -------------- ---------------------------------------------------------
  1 S  4.17351100E+03  0.001835
  1 S  6.27457900E+02  0.013995
  1 S  1.42902100E+02  0.068587
  1 S  4.02343300E+01  0.232241
  1 S  1.28202100E+01  0.469070
  1 S  4.39043700E+00  0.360455

  2 S  1.16263580E+01 -0.114961
  2 S  2.71628000E+00 -0.169118
  2 S  7.72218000E-01  1.145852

  3 P  1.16263580E+01  0.067580
  3 P  2.71628000E+00  0.323907
  3 P  7.72218000E-01  0.740895

  4 S  2.12031300E-01  1.000000

  5 P  2.12031300E-01  1.000000



 Summary of "ao basis" -> "" (cartesian)
 ------------------------------------------------------------------------------
       Tag                 Description            Shells   Functions and Types
 ---------------- ------------------------------  ------  ---------------------
 H                           6-31G                   2        2   2s
 N                           6-31G                   5        9   3s2p


  xc_inp: hfexch multiplicative factor not found.


                           NWChem Geometry Optimization
                           ----------------------------




                                 H3N1 dft optimize


 maximum gradient threshold         (gmax) =   0.000450
 rms gradient threshold             (grms) =   0.000300
 maximum cartesian step threshold   (xmax) =   0.001800
 rms cartesian step threshold       (xrms) =   0.001200
 fixed trust radius                (trust) =   0.300000
 maximum step size to saddle      (sadstp) =   0.100000
 energy precision                  (eprec) =   5.0D-06
 maximum number of steps          (nptopt) =   20
 initial hessian option           (inhess) =    0
 line search option               (linopt) =    1
 hessian update option            (modupd) =    1
 saddle point option              (modsad) =    0
 initial eigen-mode to follow     (moddir) =    0
 initial variable to follow       (vardir) =    0
 follow first negative mode     (firstneg) =    T
 apply conjugacy                    (opcg) =    F
 source of zmatrix                         =           


          -------------------
          Energy Minimization
          -------------------


 Using diagonal initial Hessian 

          --------
          Step   0
          --------


                         Geometry "geometry" -> "geometry"
                         ---------------------------------

 Output coordinates in angstroms (scale by  1.889725989 to convert to a.u.)

  No.       Tag          Charge          X              Y              Z
 ---- ---------------- ---------- -------------- -------------- --------------
    1 N                    7.0000     0.00000000     0.00000000     0.10898739
    2 H                    1.0000     0.72683573     0.72683573    -0.25430392
    3 H                    1.0000     0.26604034    -0.99287607    -0.25430392
    4 H                    1.0000    -0.99287607     0.26604034    -0.25430392

      Atomic Mass 
      ----------- 

      N                 14.003070
      H                  1.007825


 Effective nuclear repulsion energy (a.u.)      11.0848640562

            Nuclear Dipole moment (a.u.) 
            ----------------------------
        X                 Y               Z
 ---------------- ---------------- ----------------
     0.0000000000    -0.0000000000     0.0000000000

      Symmetry information
      --------------------

 Group name             C3v       
 Group number             17
 Group order               6
 No. of unique centers     2

      Symmetry unique atoms

     1    2


                                 NWChem DFT Module
                                 -----------------


                                 H3N1 dft optimize


  Caching 1-el integrals 
  Rotation of axis 

            General Information
            -------------------
          SCF calculation type: DFT
          Wavefunction type:  closed shell.
          No. of atoms     :     4
          No. of electrons :    10
           Alpha electrons :     5
            Beta electrons :     5
          Charge           :     0
          Spin multiplicity:     1
          Use of symmetry is: on ; symmetry adaption is: on 
          Maximum number of iterations:  30
          AO basis - number of functions:    15
                     number of shells:    11
          Convergence on energy requested: 1.00D-06
          Convergence on density requested: 1.00D-05
          Convergence on gradient requested: 5.00D-04

              XC Information
              --------------
                     Hartree-Fock (Exact) Exchange  1.000          

          Convergence Information
          -----------------------
          Convergence aids based upon iterative change in 
          total energy or number of iterations. 
          Levelshifting, if invoked, occurs when the 
          HOMO/LUMO gap drops below (HL_TOL): 1.00D-02
          DIIS, if invoked, will attempt to extrapolate 
          using up to (NFOCK): 10 stored Fock matrices.

                    Damping( 0%)  Levelshifting(0.5)       DIIS
                  --------------- ------------------- ---------------
          dE  on:    start            ASAP                start   
          dE off:    2 iters         30 iters            30 iters 


      Screening Tolerance Information
      -------------------------------
          Density screening/tol_rho: 1.00D-10
          AO Gaussian exp screening on grid/accAOfunc:  14
          CD Gaussian exp screening on grid/accCDfunc:  20
          XC Gaussian exp screening on grid/accXCfunc:  20
          Schwarz screening/accCoul: 1.00D-08


      Superposition of Atomic Density Guess
      -------------------------------------

 Sum of atomic energies:         -55.78843586

      Non-variational initial energy
      ------------------------------

 Total energy =     -56.000453
 1-e energy   =     -96.777215
 2-e energy   =      29.691899
 HOMO         =      -0.338974
 LUMO         =       0.100555


      Symmetry analysis of molecular orbitals - initial
      -------------------------------------------------

  Numbering of irreducible representations: 

     1 a1          2 a2          3 e       

  Orbital symmetries:

     1 a1          2 a1          3 e           4 e           5 a1      
     6 a1          7 e           8 e           9 a1         10 e       
    11 e          12 a1         13 e          14 e          15 a1      

   Time after variat. SCF:      0.1
   Time prior to 1st pass:      0.1

 #quartets = 7.350D+02 #integrals = 2.363D+03 #direct =  0.0% #cached =100.0%


 Integral file          = ./NH3.aoints.0
 Record size in doubles =  65536        No. of integs per rec  =  43688
 Max. records in memory =      2        Max. records in file   = 185865
 No. of bits per label  =      8        No. of bits per value  =     64


           Memory utilization after 1st SCF pass: 
           Heap Space remaining (MW):       32.64            32635581
          Stack Space remaining (MW):       32.77            32767788

   convergence    iter        energy       DeltaE   RMS-Dens  Diis-err    time
 ---------------- ----- ----------------- --------- --------- ---------  ------
 d= 0,ls=0.0,diis     1    -56.1241183685 -6.72D+01  1.87D-02  1.58D-01     0.1
 d= 0,ls=0.0,diis     2    -56.1408485511 -1.67D-02  6.98D-03  3.65D-02     0.1
 d= 0,ls=0.0,diis     3    -56.1449569379 -4.11D-03  1.89D-03  9.25D-04     0.1
 d= 0,ls=0.0,diis     4    -56.1451474819 -1.91D-04  9.55D-04  3.29D-05     0.1
 d= 0,ls=0.0,diis     5    -56.1451655303 -1.80D-05  3.51D-04  2.18D-06     0.1
  Resetting Diis
 d= 0,ls=0.0,diis     6    -56.1451668833 -1.35D-06  4.42D-05  4.58D-08     0.1
 d= 0,ls=0.0,diis     7    -56.1451669026 -1.93D-08  2.62D-06  9.11D-10     0.1


         Total DFT energy =      -56.145166902608
      One electron energy =      -97.942468970282
           Coulomb energy =       38.271329041423
    Exchange-Corr. energy =       -7.558891029975
 Nuclear repulsion energy =       11.084864056225

 Numeric. integr. density =        0.000000000000

     Total iterative time =      0.0s



                  Occupations of the irreducible representations
                  ----------------------------------------------

                     irrep           alpha         beta
                     --------     --------     --------
                     a1                3.0          3.0
                     a2                0.0          0.0
                     e                 2.0          2.0


                       DFT Final Molecular Orbital Analysis
                       ------------------------------------

 Vector    1  Occ=2.000000D+00  E=-1.556079D+01  Symmetry=a1
              MO Center=  1.0D-20,  6.4D-22,  1.1D-01, r^2= 2.0D-02
   Bfn.  Coefficient  Atom+Function         Bfn.  Coefficient  Atom+Function  
  ----- ------------  ---------------      ----- ------------  ---------------
     1      0.996096  1 N  s          

 Vector    2  Occ=2.000000D+00  E=-1.102566D+00  Symmetry=a1
              MO Center=  2.2D-17, -2.3D-17, -6.3D-02, r^2= 7.3D-01
   Bfn.  Coefficient  Atom+Function         Bfn.  Coefficient  Atom+Function  
  ----- ------------  ---------------      ----- ------------  ---------------
     6      0.486013  1 N  s                  2      0.413459  1 N  s          
     1     -0.200315  1 N  s          

 Vector    3  Occ=2.000000D+00  E=-5.947781D-01  Symmetry=e
              MO Center=  8.2D-02,  2.0D-01, -4.4D-02, r^2= 1.1D+00
   Bfn.  Coefficient  Atom+Function         Bfn.  Coefficient  Atom+Function  
  ----- ------------  ---------------      ----- ------------  ---------------
     3      0.379788  1 N  px                10      0.279356  2 H  s          
     4      0.252725  1 N  py                 7      0.225833  1 N  px         
    11      0.190636  2 H  s                 14     -0.188278  4 H  s          
     8      0.150277  1 N  py         

 Vector    4  Occ=2.000000D+00  E=-5.947781D-01  Symmetry=e
              MO Center= -8.2D-02, -2.0D-01, -4.4D-02, r^2= 1.1D+00
   Bfn.  Coefficient  Atom+Function         Bfn.  Coefficient  Atom+Function  
  ----- ------------  ---------------      ----- ------------  ---------------
     4      0.379788  1 N  py                12     -0.269989  3 H  s          
     3     -0.252725  1 N  px                 8      0.225833  1 N  py         
    14      0.213870  4 H  s                 13     -0.184244  3 H  s          
     7     -0.150277  1 N  px         

 Vector    5  Occ=2.000000D+00  E=-4.058823D-01  Symmetry=a1
              MO Center= -5.1D-17,  2.5D-17,  2.6D-01, r^2= 8.4D-01
   Bfn.  Coefficient  Atom+Function         Bfn.  Coefficient  Atom+Function  
  ----- ------------  ---------------      ----- ------------  ---------------
     5      0.557365  1 N  pz                 9      0.503179  1 N  pz         
     6      0.224628  1 N  s          

 Vector    6  Occ=0.000000D+00  E= 1.968005D-01  Symmetry=a1
              MO Center=  5.6D-17, -5.0D-16, -3.2D-01, r^2= 3.2D+00
   Bfn.  Coefficient  Atom+Function         Bfn.  Coefficient  Atom+Function  
  ----- ------------  ---------------      ----- ------------  ---------------
     6      1.606241  1 N  s                 11     -0.870045  2 H  s          
    13     -0.870045  3 H  s                 15     -0.870045  4 H  s          
     9     -0.417140  1 N  pz                 5     -0.164001  1 N  pz         

 Vector    7  Occ=0.000000D+00  E= 2.992298D-01  Symmetry=e
              MO Center= -5.1D-01, -2.6D-01, -2.9D-01, r^2= 2.8D+00
   Bfn.  Coefficient  Atom+Function         Bfn.  Coefficient  Atom+Function  
  ----- ------------  ---------------      ----- ------------  ---------------
    15      1.460419  4 H  s                 13     -1.210878  3 H  s          
     7      0.857432  1 N  px                 8     -0.618607  1 N  py         
     3      0.288647  1 N  px                11     -0.249541  2 H  s          
     4     -0.208249  1 N  py         

 Vector    8  Occ=0.000000D+00  E= 2.992298D-01  Symmetry=e
              MO Center=  5.1D-01,  2.6D-01, -2.9D-01, r^2= 2.8D+00
   Bfn.  Coefficient  Atom+Function         Bfn.  Coefficient  Atom+Function  
  ----- ------------  ---------------      ----- ------------  ---------------
    11      1.542274  2 H  s                 13     -0.987246  3 H  s          
     8     -0.857432  1 N  py                 7     -0.618607  1 N  px         
    15     -0.555028  4 H  s                  4     -0.288647  1 N  py         
     3     -0.208249  1 N  px         

 Vector    9  Occ=0.000000D+00  E= 9.695675D-01  Symmetry=e
              MO Center=  1.0D-02,  1.1D-02,  1.2D-01, r^2= 1.9D+00
   Bfn.  Coefficient  Atom+Function         Bfn.  Coefficient  Atom+Function  
  ----- ------------  ---------------      ----- ------------  ---------------
     8     -0.865423  1 N  py                 7      0.831095  1 N  px         
    12     -0.788347  3 H  s                 14      0.770140  4 H  s          
     4      0.301637  1 N  py                 3     -0.289672  1 N  px         
    13      0.153116  3 H  s          

 Vector   10  Occ=0.000000D+00  E= 9.695675D-01  Symmetry=e
              MO Center= -1.0D-02, -1.1D-02,  1.2D-01, r^2= 1.9D+00
   Bfn.  Coefficient  Atom+Function         Bfn.  Coefficient  Atom+Function  
  ----- ------------  ---------------      ----- ------------  ---------------
    10     -0.899793  2 H  s                  7      0.865423  1 N  px         
     8      0.831095  1 N  py                14      0.465664  4 H  s          
    12      0.434129  3 H  s                  3     -0.301637  1 N  px         
     4     -0.289672  1 N  py                11      0.174762  2 H  s          

 Vector   11  Occ=0.000000D+00  E= 9.775174D-01  Symmetry=a1
              MO Center= -1.0D-14,  1.0D-14,  2.9D-01, r^2= 1.4D+00
   Bfn.  Coefficient  Atom+Function         Bfn.  Coefficient  Atom+Function  
  ----- ------------  ---------------      ----- ------------  ---------------
     9      1.112662  1 N  pz                 5     -1.000748  1 N  pz         
     6     -0.178698  1 N  s          

 Vector   12  Occ=0.000000D+00  E= 1.102913D+00  Symmetry=a1
              MO Center=  1.1D-14, -1.9D-14, -3.3D-01, r^2= 1.7D+00
   Bfn.  Coefficient  Atom+Function         Bfn.  Coefficient  Atom+Function  
  ----- ------------  ---------------      ----- ------------  ---------------
    10      0.745216  2 H  s                 12      0.745216  3 H  s          
    14      0.745216  4 H  s                  6      0.567121  1 N  s          
     2     -0.533104  1 N  s                 11     -0.522717  2 H  s          
    13     -0.522717  3 H  s                 15     -0.522717  4 H  s          
     5      0.181454  1 N  pz         

 Vector   13  Occ=0.000000D+00  E= 1.172793D+00  Symmetry=e
              MO Center= -2.8D-01,  4.3D-02, -9.3D-02, r^2= 1.7D+00
   Bfn.  Coefficient  Atom+Function         Bfn.  Coefficient  Atom+Function  
  ----- ------------  ---------------      ----- ------------  ---------------
    15      1.268673  4 H  s                  7      1.178143  1 N  px         
     3     -0.943281  1 N  px                13     -0.695181  3 H  s          
    14     -0.620276  4 H  s                 11     -0.573492  2 H  s          
     8     -0.386664  1 N  py                12      0.339886  3 H  s          
     4      0.309583  1 N  py                10      0.280390  2 H  s          

 Vector   14  Occ=0.000000D+00  E= 1.172793D+00  Symmetry=e
              MO Center=  2.8D-01, -4.3D-02, -9.3D-02, r^2= 1.7D+00
   Bfn.  Coefficient  Atom+Function         Bfn.  Coefficient  Atom+Function  
  ----- ------------  ---------------      ----- ------------  ---------------
     8      1.178143  1 N  py                11     -1.133832  2 H  s          
    13      1.063575  3 H  s                  4     -0.943281  1 N  py         
    10      0.554350  2 H  s                 12     -0.520000  3 H  s          
     7      0.386664  1 N  px                 3     -0.309583  1 N  px         

 Vector   15  Occ=0.000000D+00  E= 1.477409D+00  Symmetry=a1
              MO Center= -1.2D-15,  9.5D-16, -1.3D-01, r^2= 1.5D+00
   Bfn.  Coefficient  Atom+Function         Bfn.  Coefficient  Atom+Function  
  ----- ------------  ---------------      ----- ------------  ---------------
     6      3.237399  1 N  s                  2     -1.833268  1 N  s          
    11     -0.598550  2 H  s                 13     -0.598550  3 H  s          
    15     -0.598550  4 H  s                  9     -0.591088  1 N  pz         
    10     -0.349663  2 H  s                 12     -0.349663  3 H  s          
    14     -0.349663  4 H  s          


 center of mass
 --------------
 x =   0.00000000 y =  -0.00000000 z =   0.08404789

 moments of inertia (a.u.)
 ------------------
           6.875916168729           0.000000000000           0.000000000000
           0.000000000000           6.875916168729           0.000000000000
           0.000000000000           0.000000000000          11.407922994090

     Multipole analysis of the density
     ---------------------------------

     L   x y z        total         alpha         beta         nuclear
     -   - - -        -----         -----         ----         -------
     0   0 0 0     -0.000000     -5.000000     -5.000000     10.000000

     1   1 0 0      0.000000      0.000000      0.000000      0.000000
     1   0 1 0     -0.000000     -0.000000     -0.000000     -0.000000
     1   0 0 1     -0.837193     -0.418596     -0.418596      0.000000

     2   2 0 0     -4.472887     -5.066281     -5.066281      5.659675
     2   1 1 0      0.000000      0.000000      0.000000     -0.000000
     2   1 0 1     -0.000000     -0.000000     -0.000000      0.000000
     2   0 2 0     -4.472887     -5.066281     -5.066281      5.659675
     2   0 1 1      0.000000      0.000000      0.000000      0.000000
     2   0 0 2     -6.957403     -3.973578     -3.973578      0.989753


 Parallel integral file used       1 records with       0 large values



                            NWChem DFT Gradient Module
                            --------------------------


                                 H3N1 dft optimize



  charge          =   0.00
  wavefunction    = closed shell

  Using symmetry


                         DFT ENERGY GRADIENTS

    atom               coordinates                        gradient
                 x          y          z           x          y          z
   1 N       0.000000   0.000000   0.205956    0.000000   0.000000   0.064463
   2 H       1.373520   1.373520  -0.480565    0.043554   0.043554  -0.021488
   3 H       0.502743  -1.876264  -0.480565    0.015942  -0.059496  -0.021488
   4 H      -1.876264   0.502743  -0.480565   -0.059496   0.015942  -0.021488

                 ----------------------------------------
                 |  Time  |  1-e(secs)   |  2-e(secs)   |
                 ----------------------------------------
                 |  CPU   |       0.00   |       0.02   |
                 ----------------------------------------
                 |  WALL  |       0.00   |       0.02   |
                 ----------------------------------------

@ Step       Energy      Delta E   Gmax     Grms     Xrms     Xmax   Walltime
@ ---- ---------------- -------- -------- -------- -------- -------- --------
@    0     -56.14516690  0.0D+00  0.06446  0.03755  0.00000  0.00000      0.2
                                                                    


                                 NWChem DFT Module
                                 -----------------


                                 H3N1 dft optimize


  Caching 1-el integrals 
  Rotation of axis 

            General Information
            -------------------
          SCF calculation type: DFT
          Wavefunction type:  closed shell.
          No. of atoms     :     4
          No. of electrons :    10
           Alpha electrons :     5
            Beta electrons :     5
          Charge           :     0
          Spin multiplicity:     1
          Use of symmetry is: on ; symmetry adaption is: on 
          Maximum number of iterations:  30
          AO basis - number of functions:    15
                     number of shells:    11
          Convergence on energy requested: 1.00D-06
          Convergence on density requested: 1.00D-05
          Convergence on gradient requested: 5.00D-04

              XC Information
              --------------
                     Hartree-Fock (Exact) Exchange  1.000          

          Convergence Information
          -----------------------
          Convergence aids based upon iterative change in 
          total energy or number of iterations. 
          Levelshifting, if invoked, occurs when the 
          HOMO/LUMO gap drops below (HL_TOL): 1.00D-02
          DIIS, if invoked, will attempt to extrapolate 
          using up to (NFOCK): 10 stored Fock matrices.

                    Damping( 0%)  Levelshifting(0.5)       DIIS
                  --------------- ------------------- ---------------
          dE  on:    start            ASAP                start   
          dE off:    2 iters         30 iters            30 iters 


      Screening Tolerance Information
      -------------------------------
          Density screening/tol_rho: 1.00D-10
          AO Gaussian exp screening on grid/accAOfunc:  14
          CD Gaussian exp screening on grid/accCDfunc:  20
          XC Gaussian exp screening on grid/accXCfunc:  20
          Schwarz screening/accCoul: 1.00D-08


 Loading old vectors from job with title :

H3N1 dft optimize


      Symmetry analysis of molecular orbitals - initial
      -------------------------------------------------

  Numbering of irreducible representations: 

     1 a1          2 a2          3 e       

  Orbital symmetries:

     1 a1          2 a1          3 e           4 e           5 a1      
     6 a1          7 e           8 e           9 e          10 e       
    11 a1         12 a1         13 e          14 e          15 a1      

   Time after variat. SCF:      0.1
   Time prior to 1st pass:      0.1

 #quartets = 7.350D+02 #integrals = 2.363D+03 #direct =  0.0% #cached =100.0%


 Integral file          = ./NH3.aoints.0
 Record size in doubles =  65536        No. of integs per rec  =  43688
 Max. records in memory =      2        Max. records in file   = 185866
 No. of bits per label  =      8        No. of bits per value  =     64


           Memory utilization after 1st SCF pass: 
           Heap Space remaining (MW):       32.64            32635581
          Stack Space remaining (MW):       32.77            32767788

   convergence    iter        energy       DeltaE   RMS-Dens  Diis-err    time
 ---------------- ----- ----------------- --------- --------- ---------  ------
 d= 0,ls=0.0,diis     1    -56.1562310538 -6.82D+01  1.29D-02  4.90D-02     0.2
 d= 0,ls=0.0,diis     2    -56.1637676361 -7.54D-03  3.90D-03  8.75D-03     0.2
 d= 0,ls=0.0,diis     3    -56.1648217416 -1.05D-03  2.51D-03  6.67D-04     0.2
 d= 0,ls=0.0,diis     4    -56.1649930976 -1.71D-04  1.19D-03  2.70D-05     0.2
 d= 0,ls=0.0,diis     5    -56.1650080857 -1.50D-05  2.31D-04  7.82D-07     0.2
 d= 0,ls=0.0,diis     6    -56.1650085491 -4.63D-07  4.26D-05  4.33D-08     0.2
 d= 0,ls=0.0,diis     7    -56.1650085683 -1.93D-08  3.23D-06  3.71D-10     0.2


         Total DFT energy =      -56.165008568338
      One electron energy =      -99.754462942709
           Coulomb energy =       39.228523696182
    Exchange-Corr. energy =       -7.677755508513
 Nuclear repulsion energy =       12.038686186702

 Numeric. integr. density =        0.000000000000

     Total iterative time =      0.0s



                  Occupations of the irreducible representations
                  ----------------------------------------------

                     irrep           alpha         beta
                     --------     --------     --------
                     a1                3.0          3.0
                     a2                0.0          0.0
                     e                 2.0          2.0


                       DFT Final Molecular Orbital Analysis
                       ------------------------------------

 Vector    1  Occ=2.000000D+00  E=-1.552599D+01  Symmetry=a1
              MO Center= -8.5D-22, -2.1D-21,  3.6D-02, r^2= 2.0D-02
   Bfn.  Coefficient  Atom+Function         Bfn.  Coefficient  Atom+Function  
  ----- ------------  ---------------      ----- ------------  ---------------
     1      0.995974  1 N  s          

 Vector    2  Occ=2.000000D+00  E=-1.134160D+00  Symmetry=a1
              MO Center=  1.7D-16,  1.3D-16, -1.1D-01, r^2= 7.1D-01
   Bfn.  Coefficient  Atom+Function         Bfn.  Coefficient  Atom+Function  
  ----- ------------  ---------------      ----- ------------  ---------------
     6      0.455297  1 N  s                  2      0.417336  1 N  s          
     1     -0.201656  1 N  s          

 Vector    3  Occ=2.000000D+00  E=-6.341877D-01  Symmetry=e
              MO Center=  9.7D-02, -1.7D-01, -7.3D-02, r^2= 9.7D-01
   Bfn.  Coefficient  Atom+Function         Bfn.  Coefficient  Atom+Function  
  ----- ------------  ---------------      ----- ------------  ---------------
     4      0.466441  1 N  py                12     -0.294126  3 H  s          
     8      0.255711  1 N  py                10      0.178560  2 H  s          
    13     -0.161256  3 H  s          

 Vector    4  Occ=2.000000D+00  E=-6.341877D-01  Symmetry=e
              MO Center= -9.7D-02,  1.7D-01, -7.3D-02, r^2= 9.7D-01
   Bfn.  Coefficient  Atom+Function         Bfn.  Coefficient  Atom+Function  
  ----- ------------  ---------------      ----- ------------  ---------------
     3      0.466441  1 N  px                14     -0.272906  4 H  s          
     7      0.255711  1 N  px                10      0.236536  2 H  s          

 Vector    5  Occ=2.000000D+00  E=-3.979470D-01  Symmetry=a1
              MO Center= -5.4D-19,  2.0D-18,  1.9D-01, r^2= 8.2D-01
   Bfn.  Coefficient  Atom+Function         Bfn.  Coefficient  Atom+Function  
  ----- ------------  ---------------      ----- ------------  ---------------
     5      0.571498  1 N  pz                 9      0.528601  1 N  pz         
     6      0.164848  1 N  s          

 Vector    6  Occ=0.000000D+00  E= 2.235957D-01  Symmetry=a1
              MO Center=  0.0D+00,  5.6D-17, -3.0D-01, r^2= 3.3D+00
   Bfn.  Coefficient  Atom+Function         Bfn.  Coefficient  Atom+Function  
  ----- ------------  ---------------      ----- ------------  ---------------
     6      1.863356  1 N  s                 11     -0.949799  2 H  s          
    13     -0.949799  3 H  s                 15     -0.949799  4 H  s          
     9     -0.331835  1 N  pz         

 Vector    7  Occ=0.000000D+00  E= 3.245236D-01  Symmetry=e
              MO Center= -5.6D-01, -2.8D-01, -3.1D-01, r^2= 2.9D+00
   Bfn.  Coefficient  Atom+Function         Bfn.  Coefficient  Atom+Function  
  ----- ------------  ---------------      ----- ------------  ---------------
    15      1.693931  4 H  s                 13     -1.399127  3 H  s          
     7      0.947589  1 N  px                 8     -0.679056  1 N  py         
    11     -0.294804  2 H  s                  3      0.264772  1 N  px         
     4     -0.189739  1 N  py         

 Vector    8  Occ=0.000000D+00  E= 3.245236D-01  Symmetry=e
              MO Center=  5.6D-01,  2.8D-01, -3.1D-01, r^2= 2.9D+00
   Bfn.  Coefficient  Atom+Function         Bfn.  Coefficient  Atom+Function  
  ----- ------------  ---------------      ----- ------------  ---------------
    11      1.785778  2 H  s                 13     -1.148197  3 H  s          
     8     -0.947589  1 N  py                 7     -0.679056  1 N  px         
    15     -0.637581  4 H  s                  4     -0.264772  1 N  py         
     3     -0.189739  1 N  px         

 Vector    9  Occ=0.000000D+00  E= 9.480631D-01  Symmetry=e
              MO Center=  1.0D-01,  1.2D-01,  1.2D-01, r^2= 1.7D+00
   Bfn.  Coefficient  Atom+Function         Bfn.  Coefficient  Atom+Function  
  ----- ------------  ---------------      ----- ------------  ---------------
     8     -1.110383  1 N  py                 7      1.050149  1 N  px         
    12     -0.727465  3 H  s                 14      0.704418  4 H  s          
     4      0.336984  1 N  py                 3     -0.318704  1 N  px         
    13     -0.183156  3 H  s                 15      0.177354  4 H  s          

 Vector   10  Occ=0.000000D+00  E= 9.480631D-01  Symmetry=e
              MO Center= -1.0D-01, -1.2D-01,  1.2D-01, r^2= 1.7D+00
   Bfn.  Coefficient  Atom+Function         Bfn.  Coefficient  Atom+Function  
  ----- ------------  ---------------      ----- ------------  ---------------
     7      1.110383  1 N  px                 8      1.050149  1 N  py         
    10     -0.826698  2 H  s                 14      0.433309  4 H  s          
    12      0.393389  3 H  s                  3     -0.336984  1 N  px         
     4     -0.318704  1 N  py                11     -0.208141  2 H  s          

 Vector   11  Occ=0.000000D+00  E= 9.742828D-01  Symmetry=a1
              MO Center= -9.1D-17, -6.5D-17,  1.1D-01, r^2= 1.4D+00
   Bfn.  Coefficient  Atom+Function         Bfn.  Coefficient  Atom+Function  
  ----- ------------  ---------------      ----- ------------  ---------------
     9      1.108762  1 N  pz                 5     -0.985918  1 N  pz         
     6     -0.293645  1 N  s          

 Vector   12  Occ=0.000000D+00  E= 1.181945D+00  Symmetry=a1
              MO Center=  2.8D-16,  2.0D-16, -2.8D-01, r^2= 1.5D+00
   Bfn.  Coefficient  Atom+Function         Bfn.  Coefficient  Atom+Function  
  ----- ------------  ---------------      ----- ------------  ---------------
    10      0.808582  2 H  s                 12      0.808582  3 H  s          
    14      0.808582  4 H  s                 11     -0.359032  2 H  s          
    13     -0.359032  3 H  s                 15     -0.359032  4 H  s          
     2     -0.296636  1 N  s                  5      0.250184  1 N  pz         

 Vector   13  Occ=0.000000D+00  E= 1.263239D+00  Symmetry=e
              MO Center=  1.6D-01,  2.9D-01, -1.4D-01, r^2= 1.5D+00
   Bfn.  Coefficient  Atom+Function         Bfn.  Coefficient  Atom+Function  
  ----- ------------  ---------------      ----- ------------  ---------------
    11      1.305432  2 H  s                  7     -0.879931  1 N  px         
    15     -0.815551  4 H  s                  3      0.798955  1 N  px         
    10     -0.742917  2 H  s                  8     -0.658364  1 N  py         
     4      0.597778  1 N  py                13     -0.489880  3 H  s          
    14      0.464128  4 H  s                 12      0.278789  3 H  s          

 Vector   14  Occ=0.000000D+00  E= 1.263239D+00  Symmetry=e
              MO Center= -1.6D-01, -2.9D-01, -1.4D-01, r^2= 1.5D+00
   Bfn.  Coefficient  Atom+Function         Bfn.  Coefficient  Atom+Function  
  ----- ------------  ---------------      ----- ------------  ---------------
    13      1.224550  3 H  s                 15     -1.036524  4 H  s          
     8      0.879931  1 N  py                 4     -0.798955  1 N  py         
    12     -0.696887  3 H  s                  7     -0.658364  1 N  px         
     3      0.597778  1 N  px                14      0.589882  4 H  s          
    11     -0.188026  2 H  s          

 Vector   15  Occ=0.000000D+00  E= 1.461834D+00  Symmetry=a1
              MO Center=  7.1D-16,  6.1D-16, -1.1D-01, r^2= 1.7D+00
   Bfn.  Coefficient  Atom+Function         Bfn.  Coefficient  Atom+Function  
  ----- ------------  ---------------      ----- ------------  ---------------
     6      3.583299  1 N  s                  2     -1.908584  1 N  s          
    11     -0.763801  2 H  s                 13     -0.763801  3 H  s          
    15     -0.763801  4 H  s                  9     -0.451685  1 N  pz         
    10     -0.208316  2 H  s                 12     -0.208316  3 H  s          
    14     -0.208316  4 H  s          


 center of mass
 --------------
 x =   0.00000000 y =   0.00000000 z =  -0.02056816

 moments of inertia (a.u.)
 ------------------
           5.668224489949           0.000000000000           0.000000000000
           0.000000000000           5.668224489949           0.000000000000
           0.000000000000           0.000000000000          10.074378110531

     Multipole analysis of the density
     ---------------------------------

     L   x y z        total         alpha         beta         nuclear
     -   - - -        -----         -----         ----         -------
     0   0 0 0     -0.000000     -5.000000     -5.000000     10.000000

     1   1 0 0      0.000000      0.000000      0.000000      0.000000
     1   0 1 0      0.000000      0.000000      0.000000      0.000000
     1   0 0 1     -0.699790      0.061313      0.061313     -0.822416

     2   2 0 0     -4.316701     -4.657390     -4.657390      4.998079
     2   1 1 0     -0.000000     -0.000000     -0.000000      0.000000
     2   1 0 1      0.000000      0.000000      0.000000      0.000000
     2   0 2 0     -4.316701     -4.657390     -4.657390      4.998079
     2   0 1 1     -0.000000     -0.000000     -0.000000      0.000000
     2   0 0 2     -6.731026     -3.665796     -3.665796      0.600567


 Parallel integral file used       1 records with       0 large values

 Line search: 
     step= 1.00 grad=-3.3D-02 hess= 1.4D-02 energy=    -56.165009 mode=downhill
 new step= 1.23                   predicted energy=    -56.165733

          --------
          Step   1
          --------


                         Geometry "geometry" -> "geometry"
                         ---------------------------------

 Output coordinates in angstroms (scale by  1.889725989 to convert to a.u.)

  No.       Tag          Charge          X              Y              Z
 ---- ---------------- ---------- -------------- -------------- --------------
    1 N                    7.0000     0.00000000     0.00000000     0.01969346
    2 H                    1.0000     0.67291259     0.67291259    -0.22453928
    3 H                    1.0000     0.24630310    -0.91921570    -0.22453928
    4 H                    1.0000    -0.91921570     0.24630310    -0.22453928

      Atomic Mass 
      ----------- 

      N                 14.003070
      H                  1.007825


 Effective nuclear repulsion energy (a.u.)      12.2739945328

            Nuclear Dipole moment (a.u.) 
            ----------------------------
        X                 Y               Z
 ---------------- ---------------- ----------------
    -0.0000000000     0.0000000000    -1.0124463598

      Symmetry information
      --------------------

 Group name             C3v       
 Group number             17
 Group order               6
 No. of unique centers     2

      Symmetry unique atoms

     1    2


                                 NWChem DFT Module
                                 -----------------


                                 H3N1 dft optimize


  Caching 1-el integrals 
  Rotation of axis 

            General Information
            -------------------
          SCF calculation type: DFT
          Wavefunction type:  closed shell.
          No. of atoms     :     4
          No. of electrons :    10
           Alpha electrons :     5
            Beta electrons :     5
          Charge           :     0
          Spin multiplicity:     1
          Use of symmetry is: on ; symmetry adaption is: on 
          Maximum number of iterations:  30
          AO basis - number of functions:    15
                     number of shells:    11
          Convergence on energy requested: 1.00D-06
          Convergence on density requested: 1.00D-05
          Convergence on gradient requested: 5.00D-04

              XC Information
              --------------
                     Hartree-Fock (Exact) Exchange  1.000          

          Convergence Information
          -----------------------
          Convergence aids based upon iterative change in 
          total energy or number of iterations. 
          Levelshifting, if invoked, occurs when the 
          HOMO/LUMO gap drops below (HL_TOL): 1.00D-02
          DIIS, if invoked, will attempt to extrapolate 
          using up to (NFOCK): 10 stored Fock matrices.

                    Damping( 0%)  Levelshifting(0.5)       DIIS
                  --------------- ------------------- ---------------
          dE  on:    start            ASAP                start   
          dE off:    2 iters         30 iters            30 iters 


      Screening Tolerance Information
      -------------------------------
          Density screening/tol_rho: 1.00D-10
          AO Gaussian exp screening on grid/accAOfunc:  14
          CD Gaussian exp screening on grid/accCDfunc:  20
          XC Gaussian exp screening on grid/accXCfunc:  20
          Schwarz screening/accCoul: 1.00D-08


 Loading old vectors from job with title :

H3N1 dft optimize


      Symmetry analysis of molecular orbitals - initial
      -------------------------------------------------

  Numbering of irreducible representations: 

     1 a1          2 a2          3 e       

  Orbital symmetries:

     1 a1          2 a1          3 e           4 e           5 a1      
     6 a1          7 e           8 e           9 e          10 e       
    11 a1         12 a1         13 e          14 e          15 a1      

   Time after variat. SCF:      0.2
   Time prior to 1st pass:      0.2

 #quartets = 7.350D+02 #integrals = 2.363D+03 #direct =  0.0% #cached =100.0%


 Integral file          = ./NH3.aoints.0
 Record size in doubles =  65536        No. of integs per rec  =  43688
 Max. records in memory =      2        Max. records in file   = 185866
 No. of bits per label  =      8        No. of bits per value  =     64


           Memory utilization after 1st SCF pass: 
           Heap Space remaining (MW):       32.64            32635581
          Stack Space remaining (MW):       32.77            32767788

   convergence    iter        energy       DeltaE   RMS-Dens  Diis-err    time
 ---------------- ----- ----------------- --------- --------- ---------  ------
 d= 0,ls=0.0,diis     1    -56.1644550588 -6.84D+01  2.97D-03  2.86D-03     0.2
 d= 0,ls=0.0,diis     2    -56.1648696489 -4.15D-04  8.92D-04  4.89D-04     0.2
 d= 0,ls=0.0,diis     3    -56.1649262479 -5.66D-05  5.16D-04  3.32D-05     0.2
 d= 0,ls=0.0,diis     4    -56.1649340361 -7.79D-06  2.35D-04  1.14D-06     0.2
 d= 0,ls=0.0,diis     5    -56.1649346299 -5.94D-07  4.59D-05  2.87D-08     0.2
 d= 0,ls=0.0,diis     6    -56.1649346474 -1.74D-08  9.11D-06  1.68D-09     0.2


         Total DFT energy =      -56.164934647366
      One electron energy =     -100.188600791370
           Coulomb energy =       39.455776486766
    Exchange-Corr. energy =       -7.706104875552
 Nuclear repulsion energy =       12.273994532791

 Numeric. integr. density =        0.000000000000

     Total iterative time =      0.0s



                  Occupations of the irreducible representations
                  ----------------------------------------------

                     irrep           alpha         beta
                     --------     --------     --------
                     a1                3.0          3.0
                     a2                0.0          0.0
                     e                 2.0          2.0


                       DFT Final Molecular Orbital Analysis
                       ------------------------------------

 Vector    1  Occ=2.000000D+00  E=-1.551844D+01  Symmetry=a1
              MO Center=  9.0D-18,  4.4D-18,  2.0D-02, r^2= 2.0D-02
   Bfn.  Coefficient  Atom+Function         Bfn.  Coefficient  Atom+Function  
  ----- ------------  ---------------      ----- ------------  ---------------
     1      0.995944  1 N  s          

 Vector    2  Occ=2.000000D+00  E=-1.141947D+00  Symmetry=a1
              MO Center=  1.2D-17,  3.7D-17, -1.2D-01, r^2= 7.0D-01
   Bfn.  Coefficient  Atom+Function         Bfn.  Coefficient  Atom+Function  
  ----- ------------  ---------------      ----- ------------  ---------------
     6      0.447207  1 N  s                  2      0.418750  1 N  s          
     1     -0.202265  1 N  s          

 Vector    3  Occ=2.000000D+00  E=-6.438197D-01  Symmetry=e
              MO Center= -1.1D-01,  1.6D-01, -8.1D-02, r^2= 9.5D-01
   Bfn.  Coefficient  Atom+Function         Bfn.  Coefficient  Atom+Function  
  ----- ------------  ---------------      ----- ------------  ---------------
     3      0.472988  1 N  px                14     -0.281021  4 H  s          
     7      0.253941  1 N  px                10      0.228052  2 H  s          

 Vector    4  Occ=2.000000D+00  E=-6.438197D-01  Symmetry=e
              MO Center=  1.1D-01, -1.6D-01, -8.1D-02, r^2= 9.5D-01
   Bfn.  Coefficient  Atom+Function         Bfn.  Coefficient  Atom+Function  
  ----- ------------  ---------------      ----- ------------  ---------------
     4      0.472988  1 N  py                12     -0.293913  3 H  s          
     8      0.253941  1 N  py                10      0.192829  2 H  s          
    13     -0.152988  3 H  s          

 Vector    5  Occ=2.000000D+00  E=-3.965961D-01  Symmetry=a1
              MO Center=  3.8D-19, -1.5D-18,  1.7D-01, r^2= 8.2D-01
   Bfn.  Coefficient  Atom+Function         Bfn.  Coefficient  Atom+Function  
  ----- ------------  ---------------      ----- ------------  ---------------
     5      0.574469  1 N  pz                 9      0.533238  1 N  pz         

 Vector    6  Occ=0.000000D+00  E= 2.293871D-01  Symmetry=a1
              MO Center= -2.2D-16,  2.8D-17, -2.9D-01, r^2= 3.3D+00
   Bfn.  Coefficient  Atom+Function         Bfn.  Coefficient  Atom+Function  
  ----- ------------  ---------------      ----- ------------  ---------------
     6      1.921898  1 N  s                 11     -0.967983  2 H  s          
    13     -0.967983  3 H  s                 15     -0.967983  4 H  s          
     9     -0.308807  1 N  pz         

 Vector    7  Occ=0.000000D+00  E= 3.293269D-01  Symmetry=e
              MO Center=  9.8D-02,  6.3D-01, -3.1D-01, r^2= 2.9D+00
   Bfn.  Coefficient  Atom+Function         Bfn.  Coefficient  Atom+Function  
  ----- ------------  ---------------      ----- ------------  ---------------
    11      1.777576  2 H  s                 15     -1.391252  4 H  s          
     7     -1.061263  1 N  px                 8     -0.538957  1 N  py         
    13     -0.386324  3 H  s                  3     -0.284294  1 N  px         

 Vector    8  Occ=0.000000D+00  E= 3.293269D-01  Symmetry=e
              MO Center= -9.8D-02, -6.3D-01, -3.1D-01, r^2= 2.9D+00
   Bfn.  Coefficient  Atom+Function         Bfn.  Coefficient  Atom+Function  
  ----- ------------  ---------------      ----- ------------  ---------------
    13      1.829523  3 H  s                 15     -1.249328  4 H  s          
     8      1.061263  1 N  py                11     -0.580195  2 H  s          
     7     -0.538957  1 N  px                 4      0.284294  1 N  py         

 Vector    9  Occ=0.000000D+00  E= 9.435551D-01  Symmetry=e
              MO Center=  1.2D-01,  1.4D-01,  1.1D-01, r^2= 1.7D+00
   Bfn.  Coefficient  Atom+Function         Bfn.  Coefficient  Atom+Function  
  ----- ------------  ---------------      ----- ------------  ---------------
     8     -1.173307  1 N  py                 7      1.086724  1 N  px         
    12     -0.719397  3 H  s                 14      0.688262  4 H  s          
     4      0.343673  1 N  py                 3     -0.318312  1 N  px         
    13     -0.263504  3 H  s                 15      0.252099  4 H  s          

 Vector   10  Occ=0.000000D+00  E= 9.435551D-01  Symmetry=e
              MO Center= -1.2D-01, -1.4D-01,  1.1D-01, r^2= 1.7D+00
   Bfn.  Coefficient  Atom+Function         Bfn.  Coefficient  Atom+Function  
  ----- ------------  ---------------      ----- ------------  ---------------
     7      1.173307  1 N  px                 8      1.086724  1 N  py         
    10     -0.812712  2 H  s                 14      0.433320  4 H  s          
    12      0.379392  3 H  s                  3     -0.343673  1 N  px         
     4     -0.318312  1 N  py                11     -0.297683  2 H  s          
    15      0.158718  4 H  s          

 Vector   11  Occ=0.000000D+00  E= 9.735039D-01  Symmetry=a1
              MO Center=  1.1D-16,  5.9D-16,  7.4D-02, r^2= 1.4D+00
   Bfn.  Coefficient  Atom+Function         Bfn.  Coefficient  Atom+Function  
  ----- ------------  ---------------      ----- ------------  ---------------
     9      1.104467  1 N  pz                 5     -0.984860  1 N  pz         
     6     -0.322534  1 N  s          

 Vector   12  Occ=0.000000D+00  E= 1.198671D+00  Symmetry=a1
              MO Center=  4.7D-15,  4.3D-15, -2.6D-01, r^2= 1.4D+00
   Bfn.  Coefficient  Atom+Function         Bfn.  Coefficient  Atom+Function  
  ----- ------------  ---------------      ----- ------------  ---------------
    10      0.824407  2 H  s                 12      0.824407  3 H  s          
    14      0.824407  4 H  s                  6     -0.382760  1 N  s          
    11     -0.296600  2 H  s                 13     -0.296600  3 H  s          
    15     -0.296600  4 H  s                  5      0.251161  1 N  pz         
     2     -0.206856  1 N  s          

 Vector   13  Occ=0.000000D+00  E= 1.287734D+00  Symmetry=e
              MO Center=  7.3D-03,  3.3D-01, -1.5D-01, r^2= 1.5D+00
   Bfn.  Coefficient  Atom+Function         Bfn.  Coefficient  Atom+Function  
  ----- ------------  ---------------      ----- ------------  ---------------
    11      1.227984  2 H  s                 15     -1.040644  4 H  s          
     7     -0.982191  1 N  px                 3      0.922233  1 N  px         
    10     -0.720448  2 H  s                 14      0.610537  4 H  s          
     8     -0.419747  1 N  py                 4      0.394124  1 N  py         
    13     -0.187340  3 H  s          

 Vector   14  Occ=0.000000D+00  E= 1.287734D+00  Symmetry=e
              MO Center= -7.3D-03, -3.3D-01, -1.5D-01, r^2= 1.5D+00
   Bfn.  Coefficient  Atom+Function         Bfn.  Coefficient  Atom+Function  
  ----- ------------  ---------------      ----- ------------  ---------------
    13      1.309793  3 H  s                  8      0.982191  1 N  py         
     4     -0.922233  1 N  py                15     -0.817138  4 H  s          
    12     -0.768445  3 H  s                 11     -0.492655  2 H  s          
    14      0.479408  4 H  s                  7     -0.419747  1 N  px         
     3      0.394124  1 N  px                10      0.289037  2 H  s          

 Vector   15  Occ=0.000000D+00  E= 1.461292D+00  Symmetry=a1
              MO Center= -5.6D-16, -1.2D-15, -1.1D-01, r^2= 1.7D+00
   Bfn.  Coefficient  Atom+Function         Bfn.  Coefficient  Atom+Function  
  ----- ------------  ---------------      ----- ------------  ---------------
     6      3.636192  1 N  s                  2     -1.925085  1 N  s          
    11     -0.803737  2 H  s                 13     -0.803737  3 H  s          
    15     -0.803737  4 H  s                  9     -0.413268  1 N  pz         
    10     -0.155619  2 H  s                 12     -0.155619  3 H  s          
    14     -0.155619  4 H  s          


 center of mass
 --------------
 x =  -0.00000000 y =   0.00000000 z =  -0.04474109

 moments of inertia (a.u.)
 ------------------
           5.418688828740           0.000000000000          -0.000000000000
           0.000000000000           5.418688828740          -0.000000000000
          -0.000000000000          -0.000000000000           9.778029905430

     Multipole analysis of the density
     ---------------------------------

     L   x y z        total         alpha         beta         nuclear
     -   - - -        -----         -----         ----         -------
     0   0 0 0     -0.000000     -5.000000     -5.000000     10.000000

     1   1 0 0     -0.000000      0.000000      0.000000     -0.000000
     1   0 1 0     -0.000000     -0.000000     -0.000000      0.000000
     1   0 0 1     -0.659003      0.176722      0.176722     -1.012446

     2   2 0 0     -4.287499     -4.569277     -4.569277      4.851055
     2   1 1 0      0.000000      0.000000      0.000000     -0.000000
     2   1 0 1     -0.000000     -0.000000     -0.000000      0.000000
     2   0 2 0     -4.287499     -4.569277     -4.569277      4.851055
     2   0 1 1      0.000000      0.000000      0.000000     -0.000000
     2   0 0 2     -6.681524     -3.615678     -3.615678      0.549831


 Parallel integral file used       1 records with       0 large values



                            NWChem DFT Gradient Module
                            --------------------------


                                 H3N1 dft optimize



  charge          =   0.00
  wavefunction    = closed shell

  Using symmetry


                         DFT ENERGY GRADIENTS

    atom               coordinates                        gradient
                 x          y          z           x          y          z
   1 N       0.000000   0.000000   0.037215    0.000000   0.000000  -0.002530
   2 H       1.271620   1.271620  -0.424318   -0.008688  -0.008688   0.000843
   3 H       0.465445  -1.737066  -0.424318   -0.003180   0.011868   0.000843
   4 H      -1.737066   0.465445  -0.424318    0.011868  -0.003180   0.000843

                 ----------------------------------------
                 |  Time  |  1-e(secs)   |  2-e(secs)   |
                 ----------------------------------------
                 |  CPU   |       0.00   |       0.02   |
                 ----------------------------------------
                 |  WALL  |       0.00   |       0.02   |
                 ----------------------------------------

  Step       Energy      Delta E   Gmax     Grms     Xrms     Xmax   Walltime
  ---- ---------------- -------- -------- -------- -------- -------- --------
@    1     -56.16493465 -2.0D-02  0.01187  0.00620  0.09141  0.16874      0.3
                                                                    


                                 NWChem DFT Module
                                 -----------------


                                 H3N1 dft optimize


  Caching 1-el integrals 
  Rotation of axis 

            General Information
            -------------------
          SCF calculation type: DFT
          Wavefunction type:  closed shell.
          No. of atoms     :     4
          No. of electrons :    10
           Alpha electrons :     5
            Beta electrons :     5
          Charge           :     0
          Spin multiplicity:     1
          Use of symmetry is: on ; symmetry adaption is: on 
          Maximum number of iterations:  30
          AO basis - number of functions:    15
                     number of shells:    11
          Convergence on energy requested: 1.00D-06
          Convergence on density requested: 1.00D-05
          Convergence on gradient requested: 5.00D-04

              XC Information
              --------------
                     Hartree-Fock (Exact) Exchange  1.000          

          Convergence Information
          -----------------------
          Convergence aids based upon iterative change in 
          total energy or number of iterations. 
          Levelshifting, if invoked, occurs when the 
          HOMO/LUMO gap drops below (HL_TOL): 1.00D-02
          DIIS, if invoked, will attempt to extrapolate 
          using up to (NFOCK): 10 stored Fock matrices.

                    Damping( 0%)  Levelshifting(0.5)       DIIS
                  --------------- ------------------- ---------------
          dE  on:    start            ASAP                start   
          dE off:    2 iters         30 iters            30 iters 


      Screening Tolerance Information
      -------------------------------
          Density screening/tol_rho: 1.00D-10
          AO Gaussian exp screening on grid/accAOfunc:  14
          CD Gaussian exp screening on grid/accCDfunc:  20
          XC Gaussian exp screening on grid/accXCfunc:  20
          Schwarz screening/accCoul: 1.00D-08


 Loading old vectors from job with title :

H3N1 dft optimize


      Symmetry analysis of molecular orbitals - initial
      -------------------------------------------------

  Numbering of irreducible representations: 

     1 a1          2 a2          3 e       

  Orbital symmetries:

     1 a1          2 a1          3 e           4 e           5 a1      
     6 a1          7 e           8 e           9 e          10 e       
    11 a1         12 a1         13 e          14 e          15 a1      

   Time after variat. SCF:      0.3
   Time prior to 1st pass:      0.3

 #quartets = 7.350D+02 #integrals = 2.363D+03 #direct =  0.0% #cached =100.0%


 Integral file          = ./NH3.aoints.0
 Record size in doubles =  65536        No. of integs per rec  =  43688
 Max. records in memory =      2        Max. records in file   = 185866
 No. of bits per label  =      8        No. of bits per value  =     64


           Memory utilization after 1st SCF pass: 
           Heap Space remaining (MW):       32.64            32635581
          Stack Space remaining (MW):       32.77            32767788

   convergence    iter        energy       DeltaE   RMS-Dens  Diis-err    time
 ---------------- ----- ----------------- --------- --------- ---------  ------
 d= 0,ls=0.0,diis     1    -56.1651514308 -6.83D+01  1.86D-03  1.65D-03     0.3
 d= 0,ls=0.0,diis     2    -56.1653883631 -2.37D-04  6.32D-04  2.03D-04     0.3
 d= 0,ls=0.0,diis     3    -56.1654125423 -2.42D-05  2.24D-04  2.60D-05     0.3
 d= 0,ls=0.0,diis     4    -56.1654160525 -3.51D-06  8.38D-05  2.78D-07     0.3
 d= 0,ls=0.0,diis     5    -56.1654161679 -1.15D-07  3.03D-05  1.59D-08     0.3
 d= 0,ls=0.0,diis     6    -56.1654161774 -9.49D-09  4.73D-06  3.36D-10     0.3


         Total DFT energy =      -56.165416177433
      One electron energy =      -99.861405820800
           Coulomb energy =       39.293603773118
    Exchange-Corr. energy =       -7.683622768566
 Nuclear repulsion energy =       12.086008638815

 Numeric. integr. density =        0.000000000000

     Total iterative time =      0.0s



                  Occupations of the irreducible representations
                  ----------------------------------------------

                     irrep           alpha         beta
                     --------     --------     --------
                     a1                3.0          3.0
                     a2                0.0          0.0
                     e                 2.0          2.0


                       DFT Final Molecular Orbital Analysis
                       ------------------------------------

 Vector    1  Occ=2.000000D+00  E=-1.552132D+01  Symmetry=a1
              MO Center=  3.5D-17,  4.0D-18,  4.3D-03, r^2= 2.0D-02
   Bfn.  Coefficient  Atom+Function         Bfn.  Coefficient  Atom+Function  
  ----- ------------  ---------------      ----- ------------  ---------------
     1      0.995958  1 N  s          

 Vector    2  Occ=2.000000D+00  E=-1.130718D+00  Symmetry=a1
              MO Center=  2.4D-17,  4.1D-17, -1.2D-01, r^2= 7.1D-01
   Bfn.  Coefficient  Atom+Function         Bfn.  Coefficient  Atom+Function  
  ----- ------------  ---------------      ----- ------------  ---------------
     6      0.453305  1 N  s                  2      0.419040  1 N  s          
     1     -0.202353  1 N  s          

 Vector    3  Occ=2.000000D+00  E=-6.377043D-01  Symmetry=e
              MO Center=  1.4D-01,  1.4D-01, -8.7D-02, r^2= 9.7D-01
   Bfn.  Coefficient  Atom+Function         Bfn.  Coefficient  Atom+Function  
  ----- ------------  ---------------      ----- ------------  ---------------
     3      0.338112  1 N  px                 4      0.328681  1 N  py         
    10      0.295602  2 H  s                  7      0.186450  1 N  px         
     8      0.181250  1 N  py                11      0.156193  2 H  s          
    14     -0.151422  4 H  s          

 Vector    4  Occ=2.000000D+00  E=-6.377043D-01  Symmetry=e
              MO Center= -1.4D-01, -1.4D-01, -8.7D-02, r^2= 9.7D-01
   Bfn.  Coefficient  Atom+Function         Bfn.  Coefficient  Atom+Function  
  ----- ------------  ---------------      ----- ------------  ---------------
     4     -0.338112  1 N  py                 3      0.328681  1 N  px         
    12      0.258089  3 H  s                 14     -0.253909  4 H  s          
     8     -0.186450  1 N  py                 7      0.181250  1 N  px         

 Vector    5  Occ=2.000000D+00  E=-3.932690D-01  Symmetry=a1
              MO Center=  0.0D+00,  1.1D-18,  1.4D-01, r^2= 8.3D-01
   Bfn.  Coefficient  Atom+Function         Bfn.  Coefficient  Atom+Function  
  ----- ------------  ---------------      ----- ------------  ---------------
     5      0.577247  1 N  pz                 9      0.536534  1 N  pz         

 Vector    6  Occ=0.000000D+00  E= 2.264957D-01  Symmetry=a1
              MO Center=  3.3D-16,  2.8D-16, -2.8D-01, r^2= 3.3D+00
   Bfn.  Coefficient  Atom+Function         Bfn.  Coefficient  Atom+Function  
  ----- ------------  ---------------      ----- ------------  ---------------
     6      1.878875  1 N  s                 11     -0.952512  2 H  s          
    13     -0.952512  3 H  s                 15     -0.952512  4 H  s          
     9     -0.280227  1 N  pz         

 Vector    7  Occ=0.000000D+00  E= 3.264385D-01  Symmetry=e
              MO Center= -6.4D-01,  4.6D-02, -2.9D-01, r^2= 3.0D+00
   Bfn.  Coefficient  Atom+Function         Bfn.  Coefficient  Atom+Function  
  ----- ------------  ---------------      ----- ------------  ---------------
    15      1.821628  4 H  s                  7      1.109428  1 N  px         
    13     -1.061830  3 H  s                 11     -0.759798  2 H  s          
     8     -0.414093  1 N  py                 3      0.300859  1 N  px         

 Vector    8  Occ=0.000000D+00  E= 3.264385D-01  Symmetry=e
              MO Center=  6.4D-01, -4.6D-02, -2.9D-01, r^2= 3.0D+00
   Bfn.  Coefficient  Atom+Function         Bfn.  Coefficient  Atom+Function  
  ----- ------------  ---------------      ----- ------------  ---------------
    11      1.664765  2 H  s                 13     -1.490387  3 H  s          
     8     -1.109428  1 N  py                 7     -0.414093  1 N  px         
     4     -0.300859  1 N  py                15     -0.174378  4 H  s          

 Vector    9  Occ=0.000000D+00  E= 9.543706D-01  Symmetry=e
              MO Center=  1.5D-01, -9.0D-02,  8.7D-02, r^2= 1.7D+00
   Bfn.  Coefficient  Atom+Function         Bfn.  Coefficient  Atom+Function  
  ----- ------------  ---------------      ----- ------------  ---------------
     7      1.572588  1 N  px                14      0.813703  4 H  s          
    10     -0.501311  2 H  s                  3     -0.472647  1 N  px         
    12     -0.312392  3 H  s                 15      0.266315  4 H  s          
     8     -0.203275  1 N  py                11     -0.164073  2 H  s          

 Vector   10  Occ=0.000000D+00  E= 9.543706D-01  Symmetry=e
              MO Center= -1.5D-01,  9.0D-02,  8.7D-02, r^2= 1.7D+00
   Bfn.  Coefficient  Atom+Function         Bfn.  Coefficient  Atom+Function  
  ----- ------------  ---------------      ----- ------------  ---------------
     8      1.572588  1 N  py                12      0.759223  3 H  s          
    10     -0.650151  2 H  s                  4     -0.472647  1 N  py         
    13      0.248484  3 H  s                 11     -0.212786  2 H  s          
     7      0.203275  1 N  px         

 Vector   11  Occ=0.000000D+00  E= 9.734232D-01  Symmetry=a1
              MO Center=  1.9D-17, -4.8D-18,  4.4D-02, r^2= 1.4D+00
   Bfn.  Coefficient  Atom+Function         Bfn.  Coefficient  Atom+Function  
  ----- ------------  ---------------      ----- ------------  ---------------
     9      1.089415  1 N  pz                 5     -0.987566  1 N  pz         
     6     -0.278313  1 N  s          

 Vector   12  Occ=0.000000D+00  E= 1.163725D+00  Symmetry=a1
              MO Center=  3.8D-16,  4.5D-16, -2.5D-01, r^2= 1.5D+00
   Bfn.  Coefficient  Atom+Function         Bfn.  Coefficient  Atom+Function  
  ----- ------------  ---------------      ----- ------------  ---------------
    10      0.812543  2 H  s                 12      0.812543  3 H  s          
    14      0.812543  4 H  s                  6     -0.326135  1 N  s          
    11     -0.320428  2 H  s                 13     -0.320428  3 H  s          
    15     -0.320428  4 H  s                  5      0.232887  1 N  pz         
     2     -0.185229  1 N  s          

 Vector   13  Occ=0.000000D+00  E= 1.273218D+00  Symmetry=e
              MO Center= -1.3D-01, -3.1D-01, -1.5D-01, r^2= 1.5D+00
   Bfn.  Coefficient  Atom+Function         Bfn.  Coefficient  Atom+Function  
  ----- ------------  ---------------      ----- ------------  ---------------
    13      1.241568  3 H  s                 15     -0.981623  4 H  s          
     8      0.894061  1 N  py                 4     -0.830154  1 N  py         
    12     -0.726606  3 H  s                  7     -0.592920  1 N  px         
    14      0.574478  4 H  s                  3      0.550538  1 N  px         
    11     -0.259945  2 H  s                 10      0.152128  2 H  s          

 Vector   14  Occ=0.000000D+00  E= 1.273218D+00  Symmetry=e
              MO Center=  1.3D-01,  3.1D-01, -1.5D-01, r^2= 1.5D+00
   Bfn.  Coefficient  Atom+Function         Bfn.  Coefficient  Atom+Function  
  ----- ------------  ---------------      ----- ------------  ---------------
    11      1.283560  2 H  s                  7     -0.894061  1 N  px         
    15     -0.866899  4 H  s                  3      0.830154  1 N  px         
    10     -0.751181  2 H  s                  8     -0.592920  1 N  py         
     4      0.550538  1 N  py                14      0.507337  4 H  s          
    13     -0.416661  3 H  s                 12      0.243844  3 H  s          

 Vector   15  Occ=0.000000D+00  E= 1.455308D+00  Symmetry=a1
              MO Center=  7.9D-16,  2.6D-16, -1.2D-01, r^2= 1.7D+00
   Bfn.  Coefficient  Atom+Function         Bfn.  Coefficient  Atom+Function  
  ----- ------------  ---------------      ----- ------------  ---------------
     6      3.544821  1 N  s                  2     -1.917850  1 N  s          
    11     -0.781166  2 H  s                 13     -0.781166  3 H  s          
    15     -0.781166  4 H  s                  9     -0.362189  1 N  pz         


 center of mass
 --------------
 x =  -0.00000000 y =  -0.00000000 z =  -0.06680417

 moments of inertia (a.u.)
 ------------------
           5.543733826792           0.000000000000          -0.000000000000
           0.000000000000           5.543733826792          -0.000000000000
          -0.000000000000          -0.000000000000          10.197666486341

     Multipole analysis of the density
     ---------------------------------

     L   x y z        total         alpha         beta         nuclear
     -   - - -        -----         -----         ----         -------
     0   0 0 0     -0.000000     -5.000000     -5.000000     10.000000

     1   1 0 0     -0.000000     -0.000000     -0.000000      0.000000
     1   0 1 0     -0.000000     -0.000000     -0.000000     -0.000000
     1   0 0 1     -0.604944      0.290473      0.290473     -1.185890

     2   2 0 0     -4.245079     -4.652162     -4.652162      5.059245
     2   1 1 0     -0.000000     -0.000000     -0.000000     -0.000000
     2   1 0 1      0.000000      0.000000      0.000000      0.000000
     2   0 2 0     -4.245079     -4.652162     -4.652162      5.059245
     2   0 1 1      0.000000      0.000000      0.000000      0.000000
     2   0 0 2     -6.736405     -3.626386     -3.626386      0.516366


 Parallel integral file used       1 records with       0 large values

 Line search: 
     step= 1.00 grad=-1.3D-03 hess= 8.3D-04 energy=    -56.165416 mode=downhill
 new step= 0.79                   predicted energy=    -56.165452

          --------
          Step   2
          --------


                         Geometry "geometry" -> "geometry"
                         ---------------------------------

 Output coordinates in angstroms (scale by  1.889725989 to convert to a.u.)

  No.       Tag          Charge          X              Y              Z
 ---- ---------------- ---------- -------------- -------------- --------------
    1 N                    7.0000     0.00000000     0.00000000     0.00759911
    2 H                    1.0000     0.68420893     0.68420893    -0.22050783
    3 H                    1.0000     0.25043785    -0.93464678    -0.22050783
    4 H                    1.0000    -0.93464678     0.25043785    -0.22050783

      Atomic Mass 
      ----------- 

      N                 14.003070
      H                  1.007825


 Effective nuclear repulsion energy (a.u.)      12.1254501550

            Nuclear Dipole moment (a.u.) 
            ----------------------------
        X                 Y               Z
 ---------------- ---------------- ----------------
    -0.0000000000    -0.0000000000    -1.1495764329

      Symmetry information
      --------------------

 Group name             C3v       
 Group number             17
 Group order               6
 No. of unique centers     2

      Symmetry unique atoms

     1    2


                                 NWChem DFT Module
                                 -----------------


                                 H3N1 dft optimize


  Caching 1-el integrals 
  Rotation of axis 

            General Information
            -------------------
          SCF calculation type: DFT
          Wavefunction type:  closed shell.
          No. of atoms     :     4
          No. of electrons :    10
           Alpha electrons :     5
            Beta electrons :     5
          Charge           :     0
          Spin multiplicity:     1
          Use of symmetry is: on ; symmetry adaption is: on 
          Maximum number of iterations:  30
          AO basis - number of functions:    15
                     number of shells:    11
          Convergence on energy requested: 1.00D-06
          Convergence on density requested: 1.00D-05
          Convergence on gradient requested: 5.00D-04

              XC Information
              --------------
                     Hartree-Fock (Exact) Exchange  1.000          

          Convergence Information
          -----------------------
          Convergence aids based upon iterative change in 
          total energy or number of iterations. 
          Levelshifting, if invoked, occurs when the 
          HOMO/LUMO gap drops below (HL_TOL): 1.00D-02
          DIIS, if invoked, will attempt to extrapolate 
          using up to (NFOCK): 10 stored Fock matrices.

                    Damping( 0%)  Levelshifting(0.5)       DIIS
                  --------------- ------------------- ---------------
          dE  on:    start            ASAP                start   
          dE off:    2 iters         30 iters            30 iters 


      Screening Tolerance Information
      -------------------------------
          Density screening/tol_rho: 1.00D-10
          AO Gaussian exp screening on grid/accAOfunc:  14
          CD Gaussian exp screening on grid/accCDfunc:  20
          XC Gaussian exp screening on grid/accXCfunc:  20
          Schwarz screening/accCoul: 1.00D-08


 Loading old vectors from job with title :

H3N1 dft optimize


      Symmetry analysis of molecular orbitals - initial
      -------------------------------------------------

  Numbering of irreducible representations: 

     1 a1          2 a2          3 e       

  Orbital symmetries:

     1 a1          2 a1          3 e           4 e           5 a1      
     6 a1          7 e           8 e           9 e          10 e       
    11 a1         12 a1         13 e          14 e          15 a1      

   Time after variat. SCF:      0.3
   Time prior to 1st pass:      0.3

 #quartets = 7.350D+02 #integrals = 2.363D+03 #direct =  0.0% #cached =100.0%


 Integral file          = ./NH3.aoints.0
 Record size in doubles =  65536        No. of integs per rec  =  43688
 Max. records in memory =      2        Max. records in file   = 185866
 No. of bits per label  =      8        No. of bits per value  =     64


           Memory utilization after 1st SCF pass: 
           Heap Space remaining (MW):       32.64            32635581
          Stack Space remaining (MW):       32.77            32767788

   convergence    iter        energy       DeltaE   RMS-Dens  Diis-err    time
 ---------------- ----- ----------------- --------- --------- ---------  ------
 d= 0,ls=0.0,diis     1    -56.1654399575 -6.83D+01  3.90D-04  7.37D-05     0.3
 d= 0,ls=0.0,diis     2    -56.1654504473 -1.05D-05  1.33D-04  9.26D-06     0.3
 d= 0,ls=0.0,diis     3    -56.1654515468 -1.10D-06  4.77D-05  1.14D-06     0.3
 d= 0,ls=0.0,diis     4    -56.1654517034 -1.57D-07  1.85D-05  1.35D-08     0.3
 d= 0,ls=0.0,diis     5    -56.1654517090 -5.61D-09  6.44D-06  7.22D-10     0.3


         Total DFT energy =      -56.165451708970
      One electron energy =      -99.930341784885
           Coulomb energy =       39.327799165162
    Exchange-Corr. energy =       -7.688359244272
 Nuclear repulsion energy =       12.125450155025

 Numeric. integr. density =        0.000000000000

     Total iterative time =      0.0s



                  Occupations of the irreducible representations
                  ----------------------------------------------

                     irrep           alpha         beta
                     --------     --------     --------
                     a1                3.0          3.0
                     a2                0.0          0.0
                     e                 2.0          2.0


                       DFT Final Molecular Orbital Analysis
                       ------------------------------------

 Vector    1  Occ=2.000000D+00  E=-1.552070D+01  Symmetry=a1
              MO Center= -1.1D-17,  1.0D-17,  7.5D-03, r^2= 2.0D-02
   Bfn.  Coefficient  Atom+Function         Bfn.  Coefficient  Atom+Function  
  ----- ------------  ---------------      ----- ------------  ---------------
     1      0.995955  1 N  s          

 Vector    2  Occ=2.000000D+00  E=-1.133044D+00  Symmetry=a1
              MO Center=  2.8D-17,  2.0D-17, -1.2D-01, r^2= 7.1D-01
   Bfn.  Coefficient  Atom+Function         Bfn.  Coefficient  Atom+Function  
  ----- ------------  ---------------      ----- ------------  ---------------
     6      0.452055  1 N  s                  2      0.418990  1 N  s          
     1     -0.202338  1 N  s          

 Vector    3  Occ=2.000000D+00  E=-6.390206D-01  Symmetry=e
              MO Center=  1.8D-01, -7.7D-02, -8.6D-02, r^2= 9.6D-01
   Bfn.  Coefficient  Atom+Function         Bfn.  Coefficient  Atom+Function  
  ----- ------------  ---------------      ----- ------------  ---------------
     4      0.463319  1 N  py                12     -0.265982  3 H  s          
     8      0.254077  1 N  py                10      0.245990  2 H  s          

 Vector    4  Occ=2.000000D+00  E=-6.390206D-01  Symmetry=e
              MO Center= -1.8D-01,  7.7D-02, -8.6D-02, r^2= 9.6D-01
   Bfn.  Coefficient  Atom+Function         Bfn.  Coefficient  Atom+Function  
  ----- ------------  ---------------      ----- ------------  ---------------
     3      0.463319  1 N  px                14     -0.295587  4 H  s          
     7      0.254077  1 N  px                10      0.165108  2 H  s          
    15     -0.155640  4 H  s          

 Vector    5  Occ=2.000000D+00  E=-3.939448D-01  Symmetry=a1
              MO Center=  3.2D-17, -1.6D-17,  1.4D-01, r^2= 8.3D-01
   Bfn.  Coefficient  Atom+Function         Bfn.  Coefficient  Atom+Function  
  ----- ------------  ---------------      ----- ------------  ---------------
     5      0.576677  1 N  pz                 9      0.535877  1 N  pz         

 Vector    6  Occ=0.000000D+00  E= 2.271576D-01  Symmetry=a1
              MO Center= -4.0D-15, -1.5D-14, -2.8D-01, r^2= 3.3D+00
   Bfn.  Coefficient  Atom+Function         Bfn.  Coefficient  Atom+Function  
  ----- ------------  ---------------      ----- ------------  ---------------
     6      1.888023  1 N  s                 11     -0.955823  2 H  s          
    13     -0.955823  3 H  s                 15     -0.955823  4 H  s          
     9     -0.286179  1 N  pz         

 Vector    7  Occ=0.000000D+00  E= 3.270584D-01  Symmetry=e
              MO Center=  5.4D-02, -6.4D-01, -3.0D-01, r^2= 3.0D+00
   Bfn.  Coefficient  Atom+Function         Bfn.  Coefficient  Atom+Function  
[...]
  H (Hydrogen)
  ------------
            Exponent  Coefficients 
       -------------- ---------------------------------------------------------
  1 S  3.38650000E+01  0.025494
  1 S  5.09479000E+00  0.190373
  1 S  1.15879000E+00  0.852161

  2 S  3.25840000E-01  1.000000

  3 S  1.02741000E-01  1.000000

  N (Nitrogen)
  ------------
            Exponent  Coefficients 
       -------------- ---------------------------------------------------------
  1 S  6.29348000E+03  0.001970
  1 S  9.49044000E+02  0.014961
  1 S  2.18776000E+02  0.073501
  1 S  6.36916000E+01  0.248937
  1 S  1.88282000E+01  0.602460
  1 S  2.72023000E+00  0.256202

  2 S  3.06331000E+01  0.111906
  2 S  7.02614000E+00  0.921666
  2 S  2.11205000E+00 -0.002569

  3 P  3.06331000E+01  0.038312
  3 P  7.02614000E+00  0.237403
  3 P  2.11205000E+00  0.817592

  4 S  6.84009000E-01  1.000000

  5 P  6.84009000E-01  1.000000

  6 S  2.00878000E-01  1.000000

  7 P  2.00878000E-01  1.000000

  8 S  6.39000000E-02  1.000000

  9 P  6.39000000E-02  1.000000

 10 D  9.13000000E-01  1.000000



 Summary of "ao basis" -> "" (cartesian)
 ------------------------------------------------------------------------------
       Tag                 Description            Shells   Functions and Types
 ---------------- ------------------------------  ------  ---------------------
 H                          6-311+G*                 3        3   3s
 N                          6-311+G*                10       23   5s4p1d


  xc_inp: hfexch multiplicative factor not found.

                                 NWChem DFT Module
                                 -----------------


                                  H3N1 dft energy


  Caching 1-el integrals 
  Rotation of axis 
  itol2e modified to match energy
  convergence criterion.

            General Information
            -------------------
          SCF calculation type: DFT
          Wavefunction type:  closed shell.
          No. of atoms     :     4
          No. of electrons :    10
           Alpha electrons :     5
            Beta electrons :     5
          Charge           :     0
          Spin multiplicity:     1
          Use of symmetry is: on ; symmetry adaption is: on 
          Maximum number of iterations:  30
          AO basis - number of functions:    32
                     number of shells:    19
          Convergence on energy requested: 1.00D-07
          Convergence on density requested: 1.00D-05
          Convergence on gradient requested: 5.00D-04

              XC Information
              --------------
                     Hartree-Fock (Exact) Exchange  1.000          

          Convergence Information
          -----------------------
          Convergence aids based upon iterative change in 
          total energy or number of iterations. 
          Levelshifting, if invoked, occurs when the 
          HOMO/LUMO gap drops below (HL_TOL): 1.00D-02
          DIIS, if invoked, will attempt to extrapolate 
          using up to (NFOCK): 10 stored Fock matrices.

                    Damping( 0%)  Levelshifting(0.5)       DIIS
                  --------------- ------------------- ---------------
          dE  on:    start            ASAP                start   
          dE off:    2 iters         30 iters            30 iters 


      Screening Tolerance Information
      -------------------------------
          Density screening/tol_rho: 1.00D-11
          AO Gaussian exp screening on grid/accAOfunc:  16
          CD Gaussian exp screening on grid/accCDfunc:  20
          XC Gaussian exp screening on grid/accXCfunc:  20
          Schwarz screening/accCoul: 1.00D-08


 !! nbf/nmo/basis-name mismatch 
           nbf=  32 nbf_file=  15
           nmo=  32nmo_file=  15
           basis="ao basis" basis_file="ao basis"

  Either an incorrect movecs file was specified, or linear dependence has changed,
  or the basis name was changed. 

 Loading old vectors from job with title :

H3N1 dft freq


  Load of old vectors failed.   Forcing atomic density guess


      Superposition of Atomic Density Guess
      -------------------------------------

 Sum of atomic energies:         -55.80739562

      Non-variational initial energy
      ------------------------------

 Total energy =     -56.251170
 1-e energy   =     -98.483366
 2-e energy   =      30.078907
 HOMO         =      -0.353215
 LUMO         =       0.056630


      Symmetry analysis of molecular orbitals - initial
      -------------------------------------------------

  Numbering of irreducible representations: 

     1 a1          2 a2          3 e       

  Orbital symmetries:

     1 a1          2 a1          3 e           4 e           5 a1      
     6 a1          7 e           8 e           9 a1         10 e       
    11 e          12 a1         13 e          14 e          15 a1      

   Time after variat. SCF:      1.0
   Time prior to 1st pass:      1.0

 #quartets = 6.571D+03 #integrals = 4.227D+04 #direct =  0.0% #cached =100.0%


 Integral file          = ./NH3.aoints.0
 Record size in doubles =  65536        No. of integs per rec  =  43688
 Max. records in memory =      2        Max. records in file   = 185865
 No. of bits per label  =      8        No. of bits per value  =     64


           Memory utilization after 1st SCF pass: 
           Heap Space remaining (MW):       32.64            32635013
          Stack Space remaining (MW):       32.77            32767696

   convergence    iter        energy       DeltaE   RMS-Dens  Diis-err    time
 ---------------- ----- ----------------- --------- --------- ---------  ------
 d= 0,ls=0.0,diis     1    -56.1754649641 -6.83D+01  8.53D-03  2.29D-01     1.0
 d= 0,ls=0.0,diis     2    -56.1956813775 -2.02D-02  2.65D-03  5.49D-02     1.0
 d= 0,ls=0.0,diis     3    -56.2008411538 -5.16D-03  8.60D-04  1.19D-03     1.0
 d= 0,ls=0.0,diis     4    -56.2010450442 -2.04D-04  1.90D-04  2.29D-05     1.1
 d= 0,ls=0.0,diis     5    -56.2010506990 -5.65D-06  6.60D-05  9.85D-07     1.1
 d= 0,ls=0.0,diis     6    -56.2010510318 -3.33D-07  1.92D-05  4.48D-08     1.1
 d= 0,ls=0.0,diis     7    -56.2010510557 -2.39D-08  3.87D-06  1.92D-09     1.1


         Total DFT energy =      -56.201051055686
      One electron energy =      -99.952512385711
           Coulomb energy =       39.279669752041
    Exchange-Corr. energy =       -7.681496347903
 Nuclear repulsion energy =       12.153287925887

 Numeric. integr. density =        0.000000000000

     Total iterative time =      0.1s



                  Occupations of the irreducible representations
                  ----------------------------------------------

                     irrep           alpha         beta
                     --------     --------     --------
                     a1                3.0          3.0
                     a2                0.0          0.0
                     e                 2.0          2.0


                       DFT Final Molecular Orbital Analysis
                       ------------------------------------

 Vector    1  Occ=2.000000D+00  E=-1.553117D+01  Symmetry=a1
              MO Center= -4.2D-22, -2.1D-22, -1.5D-02, r^2= 2.0D-02
   Bfn.  Coefficient  Atom+Function         Bfn.  Coefficient  Atom+Function  
  ----- ------------  ---------------      ----- ------------  ---------------
     1      0.557648  1 N  s                  2      0.467878  1 N  s          

 Vector    2  Occ=2.000000D+00  E=-1.138913D+00  Symmetry=a1
              MO Center=  5.7D-17, -6.7D-17, -1.1D-01, r^2= 7.1D-01
   Bfn.  Coefficient  Atom+Function         Bfn.  Coefficient  Atom+Function  
  ----- ------------  ---------------      ----- ------------  ---------------
     6      0.482367  1 N  s                 10      0.388098  1 N  s          
     2     -0.177645  1 N  s          

 Vector    3  Occ=2.000000D+00  E=-6.542507D-01  Symmetry=e
              MO Center= -2.0D-01,  4.6D-02, -1.0D-01, r^2= 9.4D-01
   Bfn.  Coefficient  Atom+Function         Bfn.  Coefficient  Atom+Function  
  ----- ------------  ---------------      ----- ------------  ---------------
     7      0.337439  1 N  px                11      0.226743  1 N  px         
    31     -0.203098  4 H  s                  3      0.197334  1 N  px         
    30     -0.173609  4 H  s          

 Vector    4  Occ=2.000000D+00  E=-6.542507D-01  Symmetry=e
              MO Center=  2.0D-01, -4.6D-02, -1.0D-01, r^2= 9.4D-01
   Bfn.  Coefficient  Atom+Function         Bfn.  Coefficient  Atom+Function  
  ----- ------------  ---------------      ----- ------------  ---------------
     8      0.337439  1 N  py                12      0.226743  1 N  py         
     4      0.197334  1 N  py                25      0.177363  2 H  s          
    28     -0.174413  3 H  s                 24      0.151611  2 H  s          

 Vector    5  Occ=2.000000D+00  E=-3.995061D-01  Symmetry=a1
              MO Center=  1.3D-17, -2.2D-17,  7.7D-02, r^2= 9.7D-01
   Bfn.  Coefficient  Atom+Function         Bfn.  Coefficient  Atom+Function  
  ----- ------------  ---------------      ----- ------------  ---------------
    13      0.460555  1 N  pz                 9      0.407138  1 N  pz         
     5      0.255974  1 N  pz         

 Vector    6  Occ=0.000000D+00  E= 1.129202D-01  Symmetry=a1
              MO Center=  1.8D-14, -1.3D-14, -7.9D-01, r^2= 5.8D+00
   Bfn.  Coefficient  Atom+Function         Bfn.  Coefficient  Atom+Function  
  ----- ------------  ---------------      ----- ------------  ---------------
    14      3.530155  1 N  s                 26     -1.001295  2 H  s          
    29     -1.001295  3 H  s                 32     -1.001295  4 H  s          
    10     -0.755152  1 N  s                 17     -0.533142  1 N  pz         
    25      0.173775  2 H  s                 28      0.173775  3 H  s          
    31      0.173775  4 H  s          

 Vector    7  Occ=0.000000D+00  E= 1.535296D-01  Symmetry=e
              MO Center= -4.4D-01, -3.0D-01,  2.0D-01, r^2= 7.4D+00
   Bfn.  Coefficient  Atom+Function         Bfn.  Coefficient  Atom+Function  
  ----- ------------  ---------------      ----- ------------  ---------------
    16      1.558294  1 N  py                26     -1.439523  2 H  s          
    15      1.296493  1 N  px                29      0.834088  3 H  s          
    32      0.605435  4 H  s                 12     -0.271406  1 N  py         
    11     -0.225809  1 N  px                25      0.159868  2 H  s          

 Vector    8  Occ=0.000000D+00  E= 1.535296D-01  Symmetry=e
              MO Center=  4.4D-01,  3.0D-01,  2.0D-01, r^2= 7.4D+00
   Bfn.  Coefficient  Atom+Function         Bfn.  Coefficient  Atom+Function  
  ----- ------------  ---------------      ----- ------------  ---------------
    15      1.558294  1 N  px                32      1.312670  4 H  s          
    16     -1.296493  1 N  py                29     -1.180657  3 H  s          
    11     -0.271406  1 N  px                12      0.225809  1 N  py         

 Vector    9  Occ=0.000000D+00  E= 1.979048D-01  Symmetry=a1
              MO Center= -3.6D-16, -2.2D-15,  4.0D-01, r^2= 6.5D+00
   Bfn.  Coefficient  Atom+Function         Bfn.  Coefficient  Atom+Function  
  ----- ------------  ---------------      ----- ------------  ---------------
    17      1.295298  1 N  pz                13     -0.555366  1 N  pz         
    10     -0.499942  1 N  s                 26      0.336764  2 H  s          
    29      0.336764  3 H  s                 32      0.336764  4 H  s          
    14     -0.257936  1 N  s          

 Vector   10  Occ=0.000000D+00  E= 2.853183D-01  Symmetry=e
              MO Center= -3.9D-01, -3.7D-01, -2.3D-01, r^2= 4.6D+00
   Bfn.  Coefficient  Atom+Function         Bfn.  Coefficient  Atom+Function  
  ----- ------------  ---------------      ----- ------------  ---------------
    32     -3.063618  4 H  s                 29      3.027584  3 H  s          
    15     -1.171055  1 N  px                16      1.147300  1 N  py         
    11     -0.637743  1 N  px                12      0.624807  1 N  py         

 Vector   11  Occ=0.000000D+00  E= 2.853183D-01  Symmetry=e
              MO Center=  3.9D-01,  3.7D-01, -2.3D-01, r^2= 4.6D+00
   Bfn.  Coefficient  Atom+Function         Bfn.  Coefficient  Atom+Function  
  ----- ------------  ---------------      ----- ------------  ---------------
    26      3.516757  2 H  s                 29     -1.789585  3 H  s          
    32     -1.727172  4 H  s                 16     -1.171055  1 N  py         
    15     -1.147300  1 N  px                12     -0.637743  1 N  py         
    11     -0.624807  1 N  px         

 Vector   12  Occ=0.000000D+00  E= 2.929374D-01  Symmetry=a1
              MO Center= -1.6D-13,  4.7D-13, -1.4D-01, r^2= 5.7D+00
   Bfn.  Coefficient  Atom+Function         Bfn.  Coefficient  Atom+Function  
  ----- ------------  ---------------      ----- ------------  ---------------
    14      5.870071  1 N  s                 26     -2.952012  2 H  s          
    29     -2.952012  3 H  s                 32     -2.952012  4 H  s          
    10      1.746884  1 N  s                 17     -0.492798  1 N  pz         
    13     -0.323495  1 N  pz         

 Vector   13  Occ=0.000000D+00  E= 6.717052D-01  Symmetry=e
              MO Center= -9.6D-03,  1.1D-01,  2.7D-02, r^2= 3.5D+00
   Bfn.  Coefficient  Atom+Function         Bfn.  Coefficient  Atom+Function  
  ----- ------------  ---------------      ----- ------------  ---------------
    29      2.825320  3 H  s                 28     -1.977201  3 H  s          
    16      1.619811  1 N  py                32     -1.626039  4 H  s          
    12     -1.504934  1 N  py                26     -1.199282  2 H  s          
    31      1.137926  4 H  s                 25      0.839275  2 H  s          
    15     -0.589050  1 N  px                11      0.547275  1 N  px         

 Vector   14  Occ=0.000000D+00  E= 6.717052D-01  Symmetry=e
              MO Center=  9.6D-03, -1.1D-01,  2.7D-02, r^2= 3.5D+00
   Bfn.  Coefficient  Atom+Function         Bfn.  Coefficient  Atom+Function  
  ----- ------------  ---------------      ----- ------------  ---------------
    26      2.569993  2 H  s                 32     -2.323605  4 H  s          
    25     -1.798519  2 H  s                 15     -1.619811  1 N  px         
    31      1.626093  4 H  s                 11      1.504934  1 N  px         
    16     -0.589050  1 N  py                12      0.547275  1 N  py         
    29     -0.246388  3 H  s                 28      0.172426  3 H  s          

 Vector   15  Occ=0.000000D+00  E= 7.514793D-01  Symmetry=a1
              MO Center= -2.8D-14,  7.2D-14, -4.6D-01, r^2= 3.1D+00
   Bfn.  Coefficient  Atom+Function         Bfn.  Coefficient  Atom+Function  
  ----- ------------  ---------------      ----- ------------  ---------------
    14      4.290352  1 N  s                 26     -2.340932  2 H  s          
    29     -2.340932  3 H  s                 32     -2.340932  4 H  s          
    25      1.563219  2 H  s                 28      1.563219  3 H  s          
    31      1.563219  4 H  s                 10     -1.358619  1 N  s          
    17     -0.582887  1 N  pz                13      0.523821  1 N  pz         


 center of mass
 --------------
 x =   0.00000000 y =   0.00000000 z =  -0.09515562

 moments of inertia (a.u.)
 ------------------
           5.441395383891          -0.000000000000          -0.000000000000
          -0.000000000000           5.441395383891          -0.000000000000
          -0.000000000000          -0.000000000000          10.189166673604

     Multipole analysis of the density
     ---------------------------------

     L   x y z        total         alpha         beta         nuclear
     -   - - -        -----         -----         ----         -------
     0   0 0 0     -0.000000     -5.000000     -5.000000     10.000000

     1   1 0 0     -0.000000     -0.000000     -0.000000      0.000000
     1   0 1 0      0.000000      0.000000      0.000000      0.000000
     1   0 0 1     -0.441700      0.483535      0.483535     -1.408769

     2   2 0 0     -4.295253     -4.675140     -4.675140      5.055028
     2   1 1 0      0.000000      0.000000      0.000000      0.000000
     2   1 0 1      0.000000      0.000000      0.000000      0.000000
     2   0 2 0     -4.295253     -4.675140     -4.675140      5.055028
     2   0 1 1     -0.000000     -0.000000     -0.000000     -0.000000
     2   0 0 2     -7.282239     -3.886798     -3.886798      0.491357


 Parallel integral file used       1 records with       0 large values


 Task  times  cpu:        0.2s     wall:        0.2s
 Summary of allocated global arrays
-----------------------------------
  No active global arrays



                         GA Statistics for process    0
                         ------------------------------

       create   destroy   get      put      acc     scatter   gather  read&inc
calls: 2400     2400     5.59e+04 1.90e+04 2.43e+04  290        0     4263     
number of processes/call 1.00e+00 1.00e+00 1.00e+00 1.00e+00 0.00e+00
bytes total:             1.82e+07 6.03e+06 8.81e+06 4.55e+05 0.00e+00 3.41e+04
bytes remote:            0.00e+00 0.00e+00 0.00e+00 0.00e+00 0.00e+00 0.00e+00
Max memory consumed for GA by this process: 319488 bytes
MA_summarize_allocated_blocks: starting scan ...
MA_summarize_allocated_blocks: scan completed: 0 heap blocks, 0 stack blocks
MA usage statistics:

	allocation statistics:
					      heap	     stack
					      ----	     -----
	current number of blocks	         0	         0
	maximum number of blocks	        26	        36
	current total bytes		         0	         0
	maximum total bytes		   1063904	  64298392
	maximum total K-bytes		      1064	     64299
	maximum total M-bytes		         2	        65


                                NWChem Input Module
                                -------------------





                                     CITATION
                                     --------
                Please cite the following reference when publishing
                           results obtained with NWChem:

                 M. Valiev, E.J. Bylaska, N. Govind, K. Kowalski,
              T.P. Straatsma, H.J.J. van Dam, D. Wang, J. Nieplocha,
                        E. Apra, T.L. Windus, W.A. de Jong
                 "NWChem: a comprehensive and scalable open-source
                  solution for large scale molecular simulations"
                      Comput. Phys. Commun. 181, 1477 (2010)
                           doi:10.1016/j.cpc.2010.04.018

                              AUTHORS & CONTRIBUTORS
                              ----------------------
          E. Apra, E. J. Bylaska, W. A. de Jong, N. Govind, K. Kowalski,
       T. P. Straatsma, M. Valiev, H. J. J. van Dam, D. Wang, T. L. Windus,
        J. Hammond, J. Autschbach, K. Bhaskaran-Nair, J. Brabec, K. Lopata,
     F. Aquino, S. Hirata, M. T. Hackler, J. Mullin, P. Nichols, R. Peverati,
    J. Pittner, Y. Zhao, P.-D. Fan, R. J. Harrison, M. Dupuis, D. Silverstein,
    D. M. A. Smith, J. Nieplocha, V. Tipparaju, M. Krishnan, B. E. Van Kuiken,
        A. Vazquez-Mayagoitia, L. Jensen, M. Swart, Q. Wu, T. Van Voorhis,
     A. A. Auer, M. Nooijen, L. D. Crosby, E. Brown, G. Cisneros, G. I. Fann,
     H. Fruchtl, J. Garza, K. Hirao, R. Kendall, J. A. Nichols, K. Tsemekhman,
      K. Wolinski, J. Anchell, D. Bernholdt, P. Borowski, T. Clark, D. Clerc,
      H. Dachsel, M. Deegan, K. Dyall, D. Elwood, E. Glendening, M. Gutowski,
      A. Hess, J. Jaffe, B. Johnson, J. Ju, R. Kobayashi, R. Kutteh, Z. Lin,
   R. Littlefield, X. Long, B. Meng, T. Nakajima, S. Niu, L. Pollack, M. Rosing,
   K. Glaesemann, G. Sandrone, M. Stave, H. Taylor, G. Thomas, J. H. van Lenthe,
                                A. Wong, Z. Zhang.

 Total times  cpu:        1.1s     wall:        1.5s
