
     Program PWSCF v.5.1 starts on 27Apr2015 at 23:48: 0 

     This program is part of the open-source Quantum ESPRESSO suite
     for quantum simulation of materials; please cite
         "P. Giannozzi et al., J. Phys.:Condens. Matter 21 395502 (2009);
          URL http://www.quantum-espresso.org", 
     in publications or presentations arising from this work. More details at
     http://www.quantum-espresso.org/quote

     Parallel version (MPI), running on     1 processors
     Waiting for input...
     Reading input from standard input
Warning: card &IONS ignored
Warning: card / ignored
Warning: card &CELL ignored
Warning: card / ignored

     Current dimensions of program PWSCF are:
     Max number of different atomic species (ntypx) = 10
     Max number of k-points (npk) =  40000
     Max angular momentum in pseudopotentials (lmaxx) =  3
               file Si.pbe-n-kjpaw_psl.0.1.UPF: wavefunction(s)  3S renormalized

     Subspace diagonalization in iterative solution of the eigenvalue problem:
     a serial algorithm will be used

 
     G-vector sticks info
     --------------------
     sticks:   dense  smooth     PW     G-vecs:    dense   smooth      PW
     Sum         733     733    223                12939    12939    2229
 


     bravais-lattice index     =            2
     lattice parameter (alat)  =      10.2600  a.u.
     unit-cell volume          =     270.0114 (a.u.)^3
     number of atoms/cell      =            2
     number of atomic types    =            1
     number of electrons       =         8.00
     number of Kohn-Sham states=            4
     kinetic-energy cutoff     =      50.0000  Ry
     charge density cutoff     =     200.0000  Ry
     convergence threshold     =      1.0E-06
     mixing beta               =       0.7000
     number of iterations used =            8  plain     mixing
     Exchange-correlation      =  SLA  PW   PBX  PBC ( 1  4  3  4 0)

     celldm(1)=  10.260000  celldm(2)=   0.000000  celldm(3)=   0.000000
     celldm(4)=   0.000000  celldm(5)=   0.000000  celldm(6)=   0.000000

     crystal axes: (cart. coord. in units of alat)
               a(1) = (  -0.500000   0.000000   0.500000 )  
               a(2) = (   0.000000   0.500000   0.500000 )  
               a(3) = (  -0.500000   0.500000   0.000000 )  

     reciprocal axes: (cart. coord. in units 2 pi/alat)
               b(1) = ( -1.000000 -1.000000  1.000000 )  
               b(2) = (  1.000000  1.000000  1.000000 )  
               b(3) = ( -1.000000  1.000000 -1.000000 )  


     PseudoPot. # 1 for Si read from file:
     ./Si.pbe-n-kjpaw_psl.0.1.UPF
     MD5 check sum: b9d333a40e496bef61db012f150758bf
     Pseudo is Projector augmented-wave + core cor, Zval =  4.0
     Generated using "atomic" code by A. Dal Corso  v.5.0.2 svn rev. 9415
     Shape of augmentation charge: PSQ
     Using radial grid of 1141 points,  4 beta functions with: 
                l(1) =   0
                l(2) =   0
                l(3) =   1
                l(4) =   1
     Q(r) pseudized with 0 coefficients 


     atomic species   valence    mass     pseudopotential
        Si             4.00    28.05500     Si( 1.00)

     48 Sym. Ops., with inversion, found (24 have fractional translation)



   Cartesian axes

     site n.     atom                  positions (alat units)
         1           Si  tau(   1) = (   0.0000000   0.0000000   0.0000000  )
         2           Si  tau(   2) = (  -0.2500000   0.2500000   0.2500000  )

     number of k points=    56
                       cart. coord. in units 2pi/alat
        k(    1) = (   0.0000000   0.0000000   0.0000000), wk =   0.0015026
        k(    2) = (  -0.0909091   0.0909091  -0.0909091), wk =   0.0120210
        k(    3) = (  -0.1818182   0.1818182  -0.1818182), wk =   0.0120210
        k(    4) = (  -0.2727273   0.2727273  -0.2727273), wk =   0.0120210
        k(    5) = (  -0.3636364   0.3636364  -0.3636364), wk =   0.0120210
        k(    6) = (  -0.4545455   0.4545455  -0.4545455), wk =   0.0120210
        k(    7) = (   0.0000000   0.1818182   0.0000000), wk =   0.0090158
        k(    8) = (  -0.0909091   0.2727273  -0.0909091), wk =   0.0360631
        k(    9) = (  -0.1818182   0.3636364  -0.1818182), wk =   0.0360631
        k(   10) = (  -0.2727273   0.4545455  -0.2727273), wk =   0.0360631
        k(   11) = (  -0.3636364   0.5454545  -0.3636364), wk =   0.0360631
        k(   12) = (   0.5454545  -0.3636364   0.5454545), wk =   0.0360631
        k(   13) = (   0.4545455  -0.2727273   0.4545455), wk =   0.0360631
        k(   14) = (   0.3636364  -0.1818182   0.3636364), wk =   0.0360631
        k(   15) = (   0.2727273  -0.0909091   0.2727273), wk =   0.0360631
        k(   16) = (   0.1818182  -0.0000000   0.1818182), wk =   0.0180316
        k(   17) = (   0.0000000   0.3636364   0.0000000), wk =   0.0090158
        k(   18) = (  -0.0909091   0.4545455  -0.0909091), wk =   0.0360631
        k(   19) = (  -0.1818182   0.5454545  -0.1818182), wk =   0.0360631
        k(   20) = (  -0.2727273   0.6363636  -0.2727273), wk =   0.0360631
        k(   21) = (   0.6363636  -0.2727273   0.6363636), wk =   0.0360631
        k(   22) = (   0.5454545  -0.1818182   0.5454545), wk =   0.0360631
        k(   23) = (   0.4545455  -0.0909091   0.4545455), wk =   0.0360631
        k(   24) = (   0.3636364   0.0000000   0.3636364), wk =   0.0180316
        k(   25) = (   0.0000000   0.5454545   0.0000000), wk =   0.0090158
        k(   26) = (  -0.0909091   0.6363636  -0.0909091), wk =   0.0360631
        k(   27) = (  -0.1818182   0.7272727  -0.1818182), wk =   0.0360631
        k(   28) = (   0.7272727  -0.1818182   0.7272727), wk =   0.0360631
        k(   29) = (   0.6363636  -0.0909091   0.6363636), wk =   0.0360631
        k(   30) = (   0.5454545   0.0000000   0.5454545), wk =   0.0180316
        k(   31) = (   0.0000000   0.7272727   0.0000000), wk =   0.0090158
        k(   32) = (  -0.0909091   0.8181818  -0.0909091), wk =   0.0360631
        k(   33) = (   0.8181818  -0.0909091   0.8181818), wk =   0.0360631
        k(   34) = (   0.7272727   0.0000000   0.7272727), wk =   0.0180316
        k(   35) = (   0.0000000   0.9090909   0.0000000), wk =   0.0090158
        k(   36) = (   0.9090909  -0.0000000   0.9090909), wk =   0.0180316
        k(   37) = (  -0.1818182   0.3636364   0.0000000), wk =   0.0360631
        k(   38) = (  -0.2727273   0.4545455  -0.0909091), wk =   0.0721262
        k(   39) = (  -0.3636364   0.5454545  -0.1818182), wk =   0.0721262
        k(   40) = (   0.5454545  -0.3636364   0.7272727), wk =   0.0721262
        k(   41) = (  -0.1818182   0.5454545   0.0000000), wk =   0.0360631
        k(   42) = (  -0.2727273   0.6363636  -0.0909091), wk =   0.0721262
        k(   43) = (   0.6363636  -0.2727273   0.8181818), wk =   0.0721262
        k(   44) = (   0.5454545  -0.1818182   0.7272727), wk =   0.0721262
        k(   45) = (   0.4545455  -0.0909091   0.6363636), wk =   0.0721262
        k(   46) = (   0.3636364   0.0000000   0.5454545), wk =   0.0360631
        k(   47) = (  -0.1818182   0.7272727   0.0000000), wk =   0.0360631
        k(   48) = (   0.7272727  -0.1818182   0.9090909), wk =   0.0721262
        k(   49) = (   0.6363636  -0.0909091   0.8181818), wk =   0.0721262
        k(   50) = (   0.5454545   0.0000000   0.7272727), wk =   0.0360631
        k(   51) = (   0.8181818  -0.0909091   1.0000000), wk =   0.0360631
        k(   52) = (   0.7272727   0.0000000   0.9090909), wk =   0.0360631
        k(   53) = (   0.6363636  -0.2727273   1.0000000), wk =   0.0360631
        k(   54) = (   0.5454545  -0.1818182   0.9090909), wk =   0.0721262
        k(   55) = (   0.6363636  -0.0909091   1.0000000), wk =   0.0360631
        k(   56) = (   0.5454545   0.0000000   0.9090909), wk =   0.0360631

     Dense  grid:    12939 G-vectors     FFT dimensions: (  36,  36,  36)

     Largest allocated arrays     est. size (Mb)     dimensions
        Kohn-Sham Wavefunctions         0.10 Mb     (    1639,    4)
        NL pseudopotentials             0.40 Mb     (    1639,   16)
        Each V/rho on FFT grid          0.71 Mb     (   46656)
        Each G-vector array             0.10 Mb     (   12939)
        G-vector shells                 0.00 Mb     (     180)
     Largest temporary arrays     est. size (Mb)     dimensions
        Auxiliary wavefunctions         0.40 Mb     (    1639,   16)
        Each subspace H/S matrix        0.00 Mb     (      16,   16)
        Each <psi_i|beta_j> matrix      0.00 Mb     (      16,    4)
        Arrays for rho mixing           5.70 Mb     (   46656,    8)

     Initial potential from superposition of free atoms

     starting charge    7.99888, renormalised to    8.00000
     Starting wfc are    8 randomized atomic wfcs
     Checking if some PAW data can be deallocated... 

     total cpu time spent up to now is        2.5 secs

     per-process dynamical memory:    16.6 Mb

     Self-consistent Calculation

     iteration #  1     ecut=    50.00 Ry     beta=0.70
     Davidson diagonalization with overlap
     ethr =  1.00E-02,  avg # of iterations =  2.0

     Threshold (ethr) on eigenvalues was too large:
     Diagonalizing with lowered threshold

     Davidson diagonalization with overlap
     ethr =  7.18E-04,  avg # of iterations =  1.0

     total cpu time spent up to now is        7.3 secs

     total energy              =     -93.45149389 Ry
     Harris-Foulkes estimate   =     -93.46528555 Ry
     estimated scf accuracy    <       0.05695278 Ry

     iteration #  2     ecut=    50.00 Ry     beta=0.70
     Davidson diagonalization with overlap
     ethr =  7.12E-04,  avg # of iterations =  1.0

     total cpu time spent up to now is        9.5 secs

     total energy              =     -93.45362480 Ry
     Harris-Foulkes estimate   =     -93.45375720 Ry
     estimated scf accuracy    <       0.00243020 Ry

     iteration #  3     ecut=    50.00 Ry     beta=0.70
     Davidson diagonalization with overlap
     ethr =  3.04E-05,  avg # of iterations =  2.1

     total cpu time spent up to now is       12.0 secs

     total energy              =     -93.45392388 Ry
     Harris-Foulkes estimate   =     -93.45394326 Ry
     estimated scf accuracy    <       0.00005472 Ry

     iteration #  4     ecut=    50.00 Ry     beta=0.70
     Davidson diagonalization with overlap
     ethr =  6.84E-07,  avg # of iterations =  2.9

     total cpu time spent up to now is       15.2 secs

     total energy              =     -93.45395014 Ry
     Harris-Foulkes estimate   =     -93.45395139 Ry
     estimated scf accuracy    <       0.00000325 Ry

     iteration #  5     ecut=    50.00 Ry     beta=0.70
     Davidson diagonalization with overlap
     ethr =  4.07E-08,  avg # of iterations =  2.6

     total cpu time spent up to now is       18.2 secs

     End of self-consistent calculation

          k = 0.0000 0.0000 0.0000 (  1639 PWs)   bands (ev):

    -5.7538   6.2178   6.2178   6.2178

          k =-0.0909 0.0909-0.0909 (  1606 PWs)   bands (ev):

    -5.6454   5.2299   6.0497   6.0497

          k =-0.1818 0.1818-0.1818 (  1600 PWs)   bands (ev):

    -5.3243   3.5489   5.7078   5.7078

          k =-0.2727 0.2727-0.2727 (  1624 PWs)   bands (ev):

    -4.8070   1.8855   5.3833   5.3833

          k =-0.3636 0.3636-0.3636 (  1610 PWs)   bands (ev):

    -4.1445   0.4255   5.1511   5.1511

          k =-0.4545 0.4545-0.4545 (  1610 PWs)   bands (ev):

    -3.5312  -0.5941   5.0328   5.0328

          k = 0.0000 0.1818 0.0000 (  1599 PWs)   bands (ev):

    -5.6091   5.4145   5.7217   5.7217

          k =-0.0909 0.2727-0.0909 (  1605 PWs)   bands (ev):

    -5.3581   4.0505   5.3232   5.5097

          k =-0.1818 0.3636-0.1818 (  1606 PWs)   bands (ev):

    -4.9036   2.4245   5.0030   5.1360

          k =-0.2727 0.4545-0.2727 (  1600 PWs)   bands (ev):

    -4.2798   0.9115   4.7529   4.8159

          k =-0.3636 0.5455-0.3636 (  1613 PWs)   bands (ev):

    -3.6073  -0.2861   4.4534   4.7758

          k = 0.5455-0.3636 0.5455 (  1611 PWs)   bands (ev):

    -3.3358  -0.6897   4.2745   4.8782

          k = 0.4545-0.2727 0.4545 (  1608 PWs)   bands (ev):

    -3.8219   0.0628   4.2374   5.1068

          k = 0.3636-0.1818 0.3636 (  1611 PWs)   bands (ev):

    -4.5040   1.3958   4.3581   5.4325

          k = 0.2727-0.0909 0.2727 (  1600 PWs)   bands (ev):

    -5.0775   2.9515   4.6547   5.7986

          k = 0.1818-0.0000 0.1818 (  1596 PWs)   bands (ev):

    -5.4658   4.4266   5.2206   6.0747

          k = 0.0000 0.3636 0.0000 (  1615 PWs)   bands (ev):

    -5.1774   3.9140   4.8872   4.8872

          k =-0.0909 0.4545-0.0909 (  1620 PWs)   bands (ev):

    -4.7894   2.7491   4.4699   4.5427

          k =-0.1818 0.5455-0.1818 (  1614 PWs)   bands (ev):

    -4.2166   1.3697   3.9371   4.3455

          k =-0.2727 0.6364-0.2727 (  1608 PWs)   bands (ev):

    -3.5338   0.1259   3.4590   4.3135

          k = 0.6364-0.2727 0.6364 (  1600 PWs)   bands (ev):

    -3.0482  -0.5882   3.1217   4.4454

          k = 0.5455-0.1818 0.5455 (  1600 PWs)   bands (ev):

    -3.3352  -0.1743   2.9667   4.7251

          k = 0.4545-0.0909 0.4545 (  1611 PWs)   bands (ev):

    -4.0100   0.9485   3.0463   5.1145

          k = 0.3636 0.0000 0.3636 (  1604 PWs)   bands (ev):

    -4.6285   2.1453   3.5292   5.5306

          k = 0.0000 0.5455 0.0000 (  1612 PWs)   bands (ev):

    -4.4674   2.2903   4.1633   4.1633

          k =-0.0909 0.6364-0.0909 (  1619 PWs)   bands (ev):

    -3.9525   1.3319   3.6238   3.9310

          k =-0.1818 0.7273-0.1818 (  1622 PWs)   bands (ev):

    -3.2906   0.2977   2.8939   3.8696

          k = 0.7273-0.1818 0.7273 (  1613 PWs)   bands (ev):

    -2.6729  -0.5094   2.3188   3.9829

          k = 0.6364-0.0909 0.6364 (  1609 PWs)   bands (ev):

    -2.7289  -0.4299   2.0317   4.2588

          k = 0.5455 0.0000 0.5455 (  1610 PWs)   bands (ev):

    -3.3667   0.3333   2.1923   4.6631

          k = 0.0000 0.7273 0.0000 (  1624 PWs)   bands (ev):

    -3.4949   0.6685   3.6551   3.6551

          k =-0.0909 0.8182-0.0909 (  1623 PWs)   bands (ev):

    -2.8710  -0.1485   3.1171   3.5497

          k = 0.8182-0.0909 0.8182 (  1622 PWs)   bands (ev):

    -2.1936  -0.8679   2.3338   3.6232

          k = 0.7273 0.0000 0.7273 (  1620 PWs)   bands (ev):

    -2.1271  -0.9017   1.8457   3.8686

          k = 0.0000 0.9091 0.0000 (  1608 PWs)   bands (ev):

    -2.2857  -0.8793   3.3954   3.3954

          k = 0.9091-0.0000 0.9091 (  1614 PWs)   bands (ev):

    -1.6374  -1.5257   2.9505   3.4207

          k =-0.1818 0.3636 0.0000 (  1607 PWs)   bands (ev):

    -5.0390   3.1919   4.3776   5.3946

          k =-0.2727 0.4545-0.0909 (  1606 PWs)   bands (ev):

    -4.5246   1.8671   3.8151   5.0736

          k =-0.3636 0.5455-0.1818 (  1610 PWs)   bands (ev):

    -3.8638   0.5179   3.5595   4.7276

          k = 0.5455-0.3636 0.7273 (  1612 PWs)   bands (ev):

    -3.2459  -0.4685   3.4610   4.5154

          k =-0.1818 0.5455 0.0000 (  1613 PWs)   bands (ev):

    -4.3389   1.9030   3.6596   4.3817

          k =-0.2727 0.6364-0.0909 (  1611 PWs)   bands (ev):

    -3.7191   0.8182   3.0836   4.0659

          k = 0.6364-0.2727 0.8182 (  1617 PWs)   bands (ev):

    -3.0429  -0.1971   2.6983   3.9094

          k = 0.5455-0.1818 0.7273 (  1614 PWs)   bands (ev):

    -2.7742  -0.5491   2.4673   3.9996

          k = 0.4545-0.0909 0.6364 (  1612 PWs)   bands (ev):

    -3.2836   0.1449   2.4548   4.2970

          k = 0.3636 0.0000 0.5455 (  1604 PWs)   bands (ev):

    -3.9620   1.1313   2.8322   4.7141

          k =-0.1818 0.7273 0.0000 (  1618 PWs)   bands (ev):

    -3.3850   0.5311   3.1823   3.5751

          k = 0.7273-0.1818 0.9091 (  1622 PWs)   bands (ev):

    -2.7016  -0.2944   2.5356   3.3960

          k = 0.6364-0.0909 0.8182 (  1612 PWs)   bands (ev):

    -2.2290  -0.7965   2.0110   3.5131

          k = 0.5455 0.0000 0.7273 (  1613 PWs)   bands (ev):

    -2.6172  -0.3946   1.9061   3.8381

          k = 0.8182-0.0909 1.0000 (  1624 PWs)   bands (ev):

    -2.2115  -0.8760   2.9899   3.1116

          k = 0.7273 0.0000 0.9091 (  1618 PWs)   bands (ev):

    -1.7029  -1.3251   2.3245   3.1846

          k = 0.6364-0.2727 1.0000 (  1616 PWs)   bands (ev):

    -3.0727   0.1348   2.4211   3.5976

          k = 0.5455-0.1818 0.9091 (  1611 PWs)   bands (ev):

    -2.4345  -0.5692   2.1395   3.2754

          k = 0.6364-0.0909 1.0000 (  1621 PWs)   bands (ev):

    -2.0237  -0.9188   2.3702   2.7536

          k = 0.5455 0.0000 0.9091 (  1611 PWs)   bands (ev):

    -1.8220  -1.0846   2.0881   2.7906

     highest occupied level (ev):     6.2178

!    total energy              =     -93.45395113 Ry
     Harris-Foulkes estimate   =     -93.45395122 Ry
     estimated scf accuracy    <       0.00000009 Ry

     total all-electron energy =     -1160.145687 Ry

     The total energy is the sum of the following terms:

     one-electron contribution =       5.74092752 Ry
     hartree contribution      =       1.09690908 Ry
     xc contribution           =     -12.25626975 Ry
     ewald contribution        =     -16.80092961 Ry
     one-center paw contrib.   =     -71.23458837 Ry

     convergence has been achieved in   5 iterations

     Forces acting on atoms (Ry/au):

     atom    1 type  1   force =    -0.00000000   -0.00000000   -0.00000000
     atom    2 type  1   force =     0.00000000    0.00000000    0.00000000

     Total force =     0.000000     Total SCF correction =     0.000000


     entering subroutine stress ...

          total   stress  (Ry/bohr**3)                   (kbar)     P=   18.84
   0.00012806   0.00000000   0.00000000         18.84      0.00      0.00
   0.00000000   0.00012806   0.00000000          0.00     18.84      0.00
   0.00000000   0.00000000   0.00012806          0.00      0.00     18.84


     Writing output data file pwscf.save
 
     init_run     :      2.22s CPU      2.24s WALL (       1 calls)
     electrons    :     15.47s CPU     15.63s WALL (       1 calls)
     forces       :      0.20s CPU      0.20s WALL (       1 calls)
     stress       :      0.72s CPU      0.72s WALL (       1 calls)

     Called by init_run:
     wfcinit      :      1.46s CPU      1.47s WALL (       1 calls)
     potinit      :      0.22s CPU      0.23s WALL (       1 calls)

     Called by electrons:
     c_bands      :     11.78s CPU     11.89s WALL (       6 calls)
     sum_band     :      2.50s CPU      2.51s WALL (       6 calls)
     v_of_rho     :      0.31s CPU      0.31s WALL (       6 calls)
     newd         :      0.13s CPU      0.13s WALL (       6 calls)
     mix_rho      :      0.02s CPU      0.02s WALL (       6 calls)

     Called by c_bands:
     init_us_2    :      0.47s CPU      0.49s WALL (     840 calls)
     cegterg      :     10.96s CPU     11.06s WALL (     336 calls)

     Called by *egterg:
     h_psi        :     11.43s CPU     11.52s WALL (    1045 calls)
     s_psi        :      0.19s CPU      0.20s WALL (    1045 calls)
     g_psi        :      0.08s CPU      0.09s WALL (     653 calls)
     cdiaghg      :      0.10s CPU      0.10s WALL (     933 calls)

     Called by h_psi:
     add_vuspsi   :      0.20s CPU      0.20s WALL (    1045 calls)

     General routines
     calbec       :      0.32s CPU      0.31s WALL (    1493 calls)
     fft          :      0.21s CPU      0.21s WALL (     105 calls)
     fftw         :     11.71s CPU     11.75s WALL (    9334 calls)
     davcio       :      0.00s CPU      0.00s WALL (      56 calls)
 
     Parallel routines
     fft_scatter  :      0.85s CPU      0.83s WALL (    9439 calls)

     PAW routines
     PAW_pot      :      0.96s CPU      0.98s WALL (       6 calls)
     PAW_symme    :      0.00s CPU      0.00s WALL (      12 calls)
 
     PWSCF        :    19.15s CPU        19.47s WALL

 
   This run was terminated on:  23:48:20  27Apr2015            

=------------------------------------------------------------------------------=
   JOB DONE.
=------------------------------------------------------------------------------=
