
     Program PWSCF v.5.1 starts on 27Apr2015 at 23:49:12 

     This program is part of the open-source Quantum ESPRESSO suite
     for quantum simulation of materials; please cite
         "P. Giannozzi et al., J. Phys.:Condens. Matter 21 395502 (2009);
          URL http://www.quantum-espresso.org", 
     in publications or presentations arising from this work. More details at
     http://www.quantum-espresso.org/quote

     Parallel version (MPI), running on     1 processors
     Waiting for input...
     Reading input from standard input
Warning: card &IONS ignored
Warning: card / ignored
Warning: card &CELL ignored
Warning: card / ignored

     Current dimensions of program PWSCF are:
     Max number of different atomic species (ntypx) = 10
     Max number of k-points (npk) =  40000
     Max angular momentum in pseudopotentials (lmaxx) =  3
               file Si.pbe-n-kjpaw_psl.0.1.UPF: wavefunction(s)  3S renormalized

     Subspace diagonalization in iterative solution of the eigenvalue problem:
     a serial algorithm will be used

 
     G-vector sticks info
     --------------------
     sticks:   dense  smooth     PW     G-vecs:    dense   smooth      PW
     Sum         733     733    223                12939    12939    2229
 


     bravais-lattice index     =            2
     lattice parameter (alat)  =      10.2600  a.u.
     unit-cell volume          =     270.0114 (a.u.)^3
     number of atoms/cell      =            2
     number of atomic types    =            1
     number of electrons       =         8.00
     number of Kohn-Sham states=            4
     kinetic-energy cutoff     =      50.0000  Ry
     charge density cutoff     =     200.0000  Ry
     convergence threshold     =      1.0E-06
     mixing beta               =       0.7000
     number of iterations used =            8  plain     mixing
     Exchange-correlation      =  SLA  PW   PBX  PBC ( 1  4  3  4 0)

     celldm(1)=  10.260000  celldm(2)=   0.000000  celldm(3)=   0.000000
     celldm(4)=   0.000000  celldm(5)=   0.000000  celldm(6)=   0.000000

     crystal axes: (cart. coord. in units of alat)
               a(1) = (  -0.500000   0.000000   0.500000 )  
               a(2) = (   0.000000   0.500000   0.500000 )  
               a(3) = (  -0.500000   0.500000   0.000000 )  

     reciprocal axes: (cart. coord. in units 2 pi/alat)
               b(1) = ( -1.000000 -1.000000  1.000000 )  
               b(2) = (  1.000000  1.000000  1.000000 )  
               b(3) = ( -1.000000  1.000000 -1.000000 )  


     PseudoPot. # 1 for Si read from file:
     ./Si.pbe-n-kjpaw_psl.0.1.UPF
     MD5 check sum: b9d333a40e496bef61db012f150758bf
     Pseudo is Projector augmented-wave + core cor, Zval =  4.0
     Generated using "atomic" code by A. Dal Corso  v.5.0.2 svn rev. 9415
     Shape of augmentation charge: PSQ
     Using radial grid of 1141 points,  4 beta functions with: 
                l(1) =   0
                l(2) =   0
                l(3) =   1
                l(4) =   1
     Q(r) pseudized with 0 coefficients 


     atomic species   valence    mass     pseudopotential
        Si             4.00    28.05500     Si( 1.00)

     48 Sym. Ops., with inversion, found (24 have fractional translation)



   Cartesian axes

     site n.     atom                  positions (alat units)
         1           Si  tau(   1) = (   0.0000000   0.0000000   0.0000000  )
         2           Si  tau(   2) = (  -0.2500000   0.2500000   0.2500000  )

     number of k points=   104

     Number of k-points >= 100: set verbosity='high' to print them.

     Dense  grid:    12939 G-vectors     FFT dimensions: (  36,  36,  36)

     Largest allocated arrays     est. size (Mb)     dimensions
        Kohn-Sham Wavefunctions         0.10 Mb     (    1639,    4)
        NL pseudopotentials             0.40 Mb     (    1639,   16)
        Each V/rho on FFT grid          0.71 Mb     (   46656)
        Each G-vector array             0.10 Mb     (   12939)
        G-vector shells                 0.00 Mb     (     180)
     Largest temporary arrays     est. size (Mb)     dimensions
        Auxiliary wavefunctions         0.40 Mb     (    1639,   16)
        Each subspace H/S matrix        0.00 Mb     (      16,   16)
        Each <psi_i|beta_j> matrix      0.00 Mb     (      16,    4)
        Arrays for rho mixing           5.70 Mb     (   46656,    8)

     Initial potential from superposition of free atoms

     starting charge    7.99888, renormalised to    8.00000
     Starting wfc are    8 randomized atomic wfcs
     Checking if some PAW data can be deallocated... 

     total cpu time spent up to now is        3.8 secs

     per-process dynamical memory:    21.5 Mb

     Self-consistent Calculation

     iteration #  1     ecut=    50.00 Ry     beta=0.70
     Davidson diagonalization with overlap
     ethr =  1.00E-02,  avg # of iterations =  2.0

     Threshold (ethr) on eigenvalues was too large:
     Diagonalizing with lowered threshold

     Davidson diagonalization with overlap
     ethr =  7.18E-04,  avg # of iterations =  1.0

     total cpu time spent up to now is       12.5 secs

     total energy              =     -93.45151748 Ry
     Harris-Foulkes estimate   =     -93.46529689 Ry
     estimated scf accuracy    <       0.05690873 Ry

     iteration #  2     ecut=    50.00 Ry     beta=0.70
     Davidson diagonalization with overlap
     ethr =  7.11E-04,  avg # of iterations =  1.0

     total cpu time spent up to now is       16.3 secs

     total energy              =     -93.45364464 Ry
     Harris-Foulkes estimate   =     -93.45377717 Ry
     estimated scf accuracy    <       0.00243228 Ry

     iteration #  3     ecut=    50.00 Ry     beta=0.70
     Davidson diagonalization with overlap
     ethr =  3.04E-05,  avg # of iterations =  2.1

     total cpu time spent up to now is       20.8 secs

     total energy              =     -93.45394521 Ry
     Harris-Foulkes estimate   =     -93.45396504 Ry
     estimated scf accuracy    <       0.00005497 Ry

     iteration #  4     ecut=    50.00 Ry     beta=0.70
     Davidson diagonalization with overlap
     ethr =  6.87E-07,  avg # of iterations =  3.0

     total cpu time spent up to now is       26.4 secs

     total energy              =     -93.45397199 Ry
     Harris-Foulkes estimate   =     -93.45397332 Ry
     estimated scf accuracy    <       0.00000348 Ry

     iteration #  5     ecut=    50.00 Ry     beta=0.70
     Davidson diagonalization with overlap
     ethr =  4.35E-08,  avg # of iterations =  2.5

     total cpu time spent up to now is       31.7 secs

     End of self-consistent calculation

     Number of k-points >= 100: set verbosity='high' to print the bands.

     highest occupied level (ev):     6.2176

!    total energy              =     -93.45397295 Ry
     Harris-Foulkes estimate   =     -93.45397303 Ry
     estimated scf accuracy    <       0.00000008 Ry

     total all-electron energy =     -1160.145709 Ry

     The total energy is the sum of the following terms:

     one-electron contribution =       5.74095837 Ry
     hartree contribution      =       1.09682207 Ry
     xc contribution           =     -12.25622831 Ry
     ewald contribution        =     -16.80092961 Ry
     one-center paw contrib.   =     -71.23459547 Ry

     convergence has been achieved in   5 iterations

     Forces acting on atoms (Ry/au):

     atom    1 type  1   force =    -0.00000000   -0.00000000   -0.00000000
     atom    2 type  1   force =     0.00000000    0.00000000    0.00000000

     Total force =     0.000000     Total SCF correction =     0.000000


     entering subroutine stress ...

          total   stress  (Ry/bohr**3)                   (kbar)     P=   18.85
   0.00012812   0.00000000   0.00000000         18.85      0.00      0.00
   0.00000000   0.00012812   0.00000000          0.00     18.85      0.00
   0.00000000   0.00000000   0.00012812          0.00      0.00     18.85


     Writing output data file pwscf.save
 
     init_run     :      3.40s CPU      3.45s WALL (       1 calls)
     electrons    :     27.75s CPU     28.00s WALL (       1 calls)
     forces       :      0.29s CPU      0.29s WALL (       1 calls)
     stress       :      1.13s CPU      1.14s WALL (       1 calls)

     Called by init_run:
     wfcinit      :      2.63s CPU      2.66s WALL (       1 calls)
     potinit      :      0.22s CPU      0.23s WALL (       1 calls)

     Called by electrons:
     c_bands      :     22.12s CPU     22.32s WALL (       6 calls)
     sum_band     :      4.45s CPU      4.48s WALL (       6 calls)
     v_of_rho     :      0.30s CPU      0.31s WALL (       6 calls)
     newd         :      0.13s CPU      0.13s WALL (       6 calls)
     mix_rho      :      0.02s CPU      0.02s WALL (       6 calls)

     Called by c_bands:
     init_us_2    :      0.86s CPU      0.90s WALL (    1560 calls)
     cegterg      :     20.61s CPU     20.79s WALL (     624 calls)

     Called by *egterg:
     h_psi        :     21.43s CPU     21.59s WALL (    1937 calls)
     s_psi        :      0.34s CPU      0.37s WALL (    1937 calls)
     g_psi        :      0.16s CPU      0.17s WALL (    1209 calls)
     cdiaghg      :      0.19s CPU      0.18s WALL (    1729 calls)

     Called by h_psi:
     add_vuspsi   :      0.33s CPU      0.38s WALL (    1937 calls)

     General routines
     calbec       :      0.62s CPU      0.58s WALL (    2769 calls)
     fft          :      0.21s CPU      0.21s WALL (     105 calls)
     fftw         :     21.86s CPU     22.03s WALL (   17282 calls)
     davcio       :      0.00s CPU      0.01s WALL (     104 calls)
 
     Parallel routines
     fft_scatter  :      1.48s CPU      1.51s WALL (   17387 calls)

     PAW routines
     PAW_pot      :      0.95s CPU      0.96s WALL (       6 calls)
     PAW_symme    :      0.00s CPU      0.00s WALL (      12 calls)
 
     PWSCF        :    33.22s CPU        33.75s WALL

 
   This run was terminated on:  23:49:46  27Apr2015            

=------------------------------------------------------------------------------=
   JOB DONE.
=------------------------------------------------------------------------------=
