
     Program PWSCF v.5.1 starts on 27Apr2015 at 23:47: 0 

     This program is part of the open-source Quantum ESPRESSO suite
     for quantum simulation of materials; please cite
         "P. Giannozzi et al., J. Phys.:Condens. Matter 21 395502 (2009);
          URL http://www.quantum-espresso.org", 
     in publications or presentations arising from this work. More details at
     http://www.quantum-espresso.org/quote

     Parallel version (MPI), running on     1 processors
     Waiting for input...
     Reading input from standard input
Warning: card &IONS ignored
Warning: card / ignored
Warning: card &CELL ignored
Warning: card / ignored

     Current dimensions of program PWSCF are:
     Max number of different atomic species (ntypx) = 10
     Max number of k-points (npk) =  40000
     Max angular momentum in pseudopotentials (lmaxx) =  3
               file Si.pbe-n-kjpaw_psl.0.1.UPF: wavefunction(s)  3S renormalized

     Subspace diagonalization in iterative solution of the eigenvalue problem:
     a serial algorithm will be used

 
     G-vector sticks info
     --------------------
     sticks:   dense  smooth     PW     G-vecs:    dense   smooth      PW
     Sum         733     733    223                12939    12939    2133
 


     bravais-lattice index     =            2
     lattice parameter (alat)  =      10.2600  a.u.
     unit-cell volume          =     270.0114 (a.u.)^3
     number of atoms/cell      =            2
     number of atomic types    =            1
     number of electrons       =         8.00
     number of Kohn-Sham states=            4
     kinetic-energy cutoff     =      50.0000  Ry
     charge density cutoff     =     200.0000  Ry
     convergence threshold     =      1.0E-06
     mixing beta               =       0.7000
     number of iterations used =            8  plain     mixing
     Exchange-correlation      =  SLA  PW   PBX  PBC ( 1  4  3  4 0)

     celldm(1)=  10.260000  celldm(2)=   0.000000  celldm(3)=   0.000000
     celldm(4)=   0.000000  celldm(5)=   0.000000  celldm(6)=   0.000000

     crystal axes: (cart. coord. in units of alat)
               a(1) = (  -0.500000   0.000000   0.500000 )  
               a(2) = (   0.000000   0.500000   0.500000 )  
               a(3) = (  -0.500000   0.500000   0.000000 )  

     reciprocal axes: (cart. coord. in units 2 pi/alat)
               b(1) = ( -1.000000 -1.000000  1.000000 )  
               b(2) = (  1.000000  1.000000  1.000000 )  
               b(3) = ( -1.000000  1.000000 -1.000000 )  


     PseudoPot. # 1 for Si read from file:
     ./Si.pbe-n-kjpaw_psl.0.1.UPF
     MD5 check sum: b9d333a40e496bef61db012f150758bf
     Pseudo is Projector augmented-wave + core cor, Zval =  4.0
     Generated using "atomic" code by A. Dal Corso  v.5.0.2 svn rev. 9415
     Shape of augmentation charge: PSQ
     Using radial grid of 1141 points,  4 beta functions with: 
                l(1) =   0
                l(2) =   0
                l(3) =   1
                l(4) =   1
     Q(r) pseudized with 0 coefficients 


     atomic species   valence    mass     pseudopotential
        Si             4.00    28.05500     Si( 1.00)

     48 Sym. Ops., with inversion, found (24 have fractional translation)



   Cartesian axes

     site n.     atom                  positions (alat units)
         1           Si  tau(   1) = (   0.0000000   0.0000000   0.0000000  )
         2           Si  tau(   2) = (  -0.2500000   0.2500000   0.2500000  )

     number of k points=    16
                       cart. coord. in units 2pi/alat
        k(    1) = (   0.0000000   0.0000000   0.0000000), wk =   0.0092593
        k(    2) = (  -0.1666667   0.1666667  -0.1666667), wk =   0.0740741
        k(    3) = (  -0.3333333   0.3333333  -0.3333333), wk =   0.0740741
        k(    4) = (   0.5000000  -0.5000000   0.5000000), wk =   0.0370370
        k(    5) = (   0.0000000   0.3333333   0.0000000), wk =   0.0555556
        k(    6) = (  -0.1666667   0.5000000  -0.1666667), wk =   0.2222222
        k(    7) = (   0.6666667  -0.3333333   0.6666667), wk =   0.2222222
        k(    8) = (   0.5000000  -0.1666667   0.5000000), wk =   0.2222222
        k(    9) = (   0.3333333   0.0000000   0.3333333), wk =   0.1111111
        k(   10) = (   0.0000000   0.6666667   0.0000000), wk =   0.0555556
        k(   11) = (   0.8333333  -0.1666667   0.8333333), wk =   0.2222222
        k(   12) = (   0.6666667  -0.0000000   0.6666667), wk =   0.1111111
        k(   13) = (   0.0000000  -1.0000000   0.0000000), wk =   0.0277778
        k(   14) = (   0.6666667  -0.3333333   1.0000000), wk =   0.2222222
        k(   15) = (   0.5000000  -0.1666667   0.8333333), wk =   0.2222222
        k(   16) = (  -0.3333333  -1.0000000   0.0000000), wk =   0.1111111

     Dense  grid:    12939 G-vectors     FFT dimensions: (  36,  36,  36)

     Largest allocated arrays     est. size (Mb)     dimensions
        Kohn-Sham Wavefunctions         0.10 Mb     (    1639,    4)
        NL pseudopotentials             0.40 Mb     (    1639,   16)
        Each V/rho on FFT grid          0.71 Mb     (   46656)
        Each G-vector array             0.10 Mb     (   12939)
        G-vector shells                 0.00 Mb     (     180)
     Largest temporary arrays     est. size (Mb)     dimensions
        Auxiliary wavefunctions         0.40 Mb     (    1639,   16)
        Each subspace H/S matrix        0.00 Mb     (      16,   16)
        Each <psi_i|beta_j> matrix      0.00 Mb     (      16,    4)
        Arrays for rho mixing           5.70 Mb     (   46656,    8)

     Initial potential from superposition of free atoms

     starting charge    7.99888, renormalised to    8.00000
     Starting wfc are    8 randomized atomic wfcs
     Checking if some PAW data can be deallocated... 

     total cpu time spent up to now is        1.5 secs

     per-process dynamical memory:    13.6 Mb

     Self-consistent Calculation

     iteration #  1     ecut=    50.00 Ry     beta=0.70
     Davidson diagonalization with overlap
     ethr =  1.00E-02,  avg # of iterations =  2.0

     Threshold (ethr) on eigenvalues was too large:
     Diagonalizing with lowered threshold

     Davidson diagonalization with overlap
     ethr =  7.31E-04,  avg # of iterations =  1.1

     total cpu time spent up to now is        3.1 secs

     total energy              =     -93.44973071 Ry
     Harris-Foulkes estimate   =     -93.46384427 Ry
     estimated scf accuracy    <       0.05807172 Ry

     iteration #  2     ecut=    50.00 Ry     beta=0.70
     Davidson diagonalization with overlap
     ethr =  7.26E-04,  avg # of iterations =  1.0

     total cpu time spent up to now is        3.9 secs

     total energy              =     -93.45190638 Ry
     Harris-Foulkes estimate   =     -93.45203751 Ry
     estimated scf accuracy    <       0.00247361 Ry

     iteration #  3     ecut=    50.00 Ry     beta=0.70
     Davidson diagonalization with overlap
     ethr =  3.09E-05,  avg # of iterations =  1.9

     total cpu time spent up to now is        4.8 secs

     total energy              =     -93.45218118 Ry
     Harris-Foulkes estimate   =     -93.45219627 Ry
     estimated scf accuracy    <       0.00005256 Ry

     iteration #  4     ecut=    50.00 Ry     beta=0.70
     Davidson diagonalization with overlap
     ethr =  6.57E-07,  avg # of iterations =  3.1

     total cpu time spent up to now is        5.9 secs

     total energy              =     -93.45221033 Ry
     Harris-Foulkes estimate   =     -93.45221079 Ry
     estimated scf accuracy    <       0.00000138 Ry

     iteration #  5     ecut=    50.00 Ry     beta=0.70
     Davidson diagonalization with overlap
     ethr =  1.72E-08,  avg # of iterations =  3.1

     total cpu time spent up to now is        6.9 secs

     End of self-consistent calculation

          k = 0.0000 0.0000 0.0000 (  1639 PWs)   bands (ev):

    -5.7476   6.2257   6.2257   6.2257

          k =-0.1667 0.1667-0.1667 (  1591 PWs)   bands (ev):

    -5.3858   3.8421   5.7744   5.7744

          k =-0.3333 0.3333-0.3333 (  1609 PWs)   bands (ev):

    -4.3685   0.8860   5.2235   5.2235

          k = 0.5000-0.5000 0.5000 (  1622 PWs)   bands (ev):

    -3.4118  -0.7518   5.0250   5.0250

          k = 0.0000 0.3333 0.0000 (  1607 PWs)   bands (ev):

    -5.2627   4.1863   5.0305   5.0305

          k =-0.1667 0.5000-0.1667 (  1611 PWs)   bands (ev):

    -4.4460   1.7857   4.2299   4.4766

          k = 0.6667-0.3333 0.6667 (  1607 PWs)   bands (ev):

    -3.2524  -0.3865   3.4451   4.4464

          k = 0.5000-0.1667 0.5000 (  1610 PWs)   bands (ev):

    -3.6382   0.2137   3.1739   4.9262

          k = 0.3333 0.0000 0.3333 (  1604 PWs)   bands (ev):

    -4.7966   2.5055   3.8092   5.6598

          k = 0.0000 0.6667 0.0000 (  1624 PWs)   bands (ev):

    -3.8403   1.2118   3.8041   3.8041

          k = 0.8333-0.1667 0.8333 (  1619 PWs)   bands (ev):

    -2.6747  -0.3443   2.5880   3.6674

          k = 0.6667-0.0000 0.6667 (  1612 PWs)   bands (ev):

    -2.4779  -0.5499   1.8061   4.1104

          k = 0.0000-1.0000 0.0000 (  1604 PWs)   bands (ev):

    -1.5971  -1.5971   3.3688   3.3688

          k = 0.6667-0.3333 1.0000 (  1610 PWs)   bands (ev):

    -3.4545   0.5780   2.6507   3.9271

          k = 0.5000-0.1667 0.8333 (  1610 PWs)   bands (ev):

    -2.4679  -0.6232   2.2102   3.4596

          k =-0.3333-1.0000 0.0000 (  1618 PWs)   bands (ev):

    -1.4769  -1.4769   2.5751   2.5751

     highest occupied level (ev):     6.2257

!    total energy              =     -93.45221094 Ry
     Harris-Foulkes estimate   =     -93.45221099 Ry
     estimated scf accuracy    <       0.00000005 Ry

     total all-electron energy =     -1160.143947 Ry

     The total energy is the sum of the following terms:

     one-electron contribution =       5.74043654 Ry
     hartree contribution      =       1.10142813 Ry
     xc contribution           =     -12.25849023 Ry
     ewald contribution        =     -16.80092961 Ry
     one-center paw contrib.   =     -71.23465578 Ry

     convergence has been achieved in   5 iterations

     Forces acting on atoms (Ry/au):

     atom    1 type  1   force =    -0.00000000    0.00000000    0.00000000
     atom    2 type  1   force =     0.00000000   -0.00000000   -0.00000000

     Total force =     0.000000     Total SCF correction =     0.000000


     entering subroutine stress ...

          total   stress  (Ry/bohr**3)                   (kbar)     P=   19.61
   0.00013330   0.00000000  -0.00000000         19.61      0.00     -0.00
   0.00000000   0.00013330  -0.00000000          0.00     19.61     -0.00
  -0.00000000  -0.00000000   0.00013330         -0.00     -0.00     19.61


     Writing output data file pwscf.save
 
     init_run     :      1.16s CPU      1.17s WALL (       1 calls)
     electrons    :      5.40s CPU      5.49s WALL (       1 calls)
     forces       :      0.13s CPU      0.13s WALL (       1 calls)
     stress       :      0.38s CPU      0.38s WALL (       1 calls)

     Called by init_run:
     wfcinit      :      0.41s CPU      0.41s WALL (       1 calls)
     potinit      :      0.22s CPU      0.22s WALL (       1 calls)

     Called by electrons:
     c_bands      :      3.39s CPU      3.45s WALL (       6 calls)
     sum_band     :      0.83s CPU      0.84s WALL (       6 calls)
     v_of_rho     :      0.30s CPU      0.31s WALL (       6 calls)
     newd         :      0.13s CPU      0.12s WALL (       6 calls)
     mix_rho      :      0.02s CPU      0.02s WALL (       6 calls)

     Called by c_bands:
     init_us_2    :      0.13s CPU      0.14s WALL (     240 calls)
     cegterg      :      3.16s CPU      3.21s WALL (      96 calls)

     Called by *egterg:
     h_psi        :      3.28s CPU      3.33s WALL (     305 calls)
     s_psi        :      0.06s CPU      0.06s WALL (     305 calls)
     g_psi        :      0.03s CPU      0.03s WALL (     193 calls)
     cdiaghg      :      0.02s CPU      0.03s WALL (     273 calls)

     Called by h_psi:
     add_vuspsi   :      0.06s CPU      0.06s WALL (     305 calls)

     General routines
     calbec       :      0.08s CPU      0.09s WALL (     433 calls)
     fft          :      0.20s CPU      0.21s WALL (     105 calls)
     fftw         :      3.37s CPU      3.40s WALL (    2696 calls)
     davcio       :      0.00s CPU      0.00s WALL (      16 calls)
 
     Parallel routines
     fft_scatter  :      0.26s CPU      0.25s WALL (    2801 calls)

     PAW routines
     PAW_pot      :      0.95s CPU      0.95s WALL (       6 calls)
     PAW_symme    :      0.00s CPU      0.00s WALL (      12 calls)
 
     PWSCF        :     7.49s CPU         7.64s WALL

 
   This run was terminated on:  23:47: 8  27Apr2015            

=------------------------------------------------------------------------------=
   JOB DONE.
=------------------------------------------------------------------------------=
