
     Program PWSCF v.5.1 starts on 28Apr2015 at 20: 4:50 

     This program is part of the open-source Quantum ESPRESSO suite
     for quantum simulation of materials; please cite
         "P. Giannozzi et al., J. Phys.:Condens. Matter 21 395502 (2009);
          URL http://www.quantum-espresso.org", 
     in publications or presentations arising from this work. More details at
     http://www.quantum-espresso.org/quote

     Parallel version (MPI), running on     1 processors
     Waiting for input...
     Reading input from standard input
Warning: card &IONS ignored
Warning: card / ignored
Warning: card &CELL ignored
Warning: card / ignored

     Current dimensions of program PWSCF are:
     Max number of different atomic species (ntypx) = 10
     Max number of k-points (npk) =  40000
     Max angular momentum in pseudopotentials (lmaxx) =  3
               file Si.pbe-n-kjpaw_psl.0.1.UPF: wavefunction(s)  3S renormalized

     Subspace diagonalization in iterative solution of the eigenvalue problem:
     a serial algorithm will be used

 
     G-vector sticks info
     --------------------
     sticks:   dense  smooth     PW     G-vecs:    dense   smooth      PW
     Sum        1459    1459    433                36685    36685    5817
 


     bravais-lattice index     =            2
     lattice parameter (alat)  =      10.3000  a.u.
     unit-cell volume          =     273.1818 (a.u.)^3
     number of atoms/cell      =            2
     number of atomic types    =            1
     number of electrons       =         8.00
     number of Kohn-Sham states=            4
     kinetic-energy cutoff     =     100.0000  Ry
     charge density cutoff     =     400.0000  Ry
     convergence threshold     =      1.0E-06
     mixing beta               =       0.7000
     number of iterations used =            8  plain     mixing
     Exchange-correlation      =  SLA  PW   PBX  PBC ( 1  4  3  4 0)

     celldm(1)=  10.300000  celldm(2)=   0.000000  celldm(3)=   0.000000
     celldm(4)=   0.000000  celldm(5)=   0.000000  celldm(6)=   0.000000

     crystal axes: (cart. coord. in units of alat)
               a(1) = (  -0.500000   0.000000   0.500000 )  
               a(2) = (   0.000000   0.500000   0.500000 )  
               a(3) = (  -0.500000   0.500000   0.000000 )  

     reciprocal axes: (cart. coord. in units 2 pi/alat)
               b(1) = ( -1.000000 -1.000000  1.000000 )  
               b(2) = (  1.000000  1.000000  1.000000 )  
               b(3) = ( -1.000000  1.000000 -1.000000 )  


     PseudoPot. # 1 for Si read from file:
     ./Si.pbe-n-kjpaw_psl.0.1.UPF
     MD5 check sum: b9d333a40e496bef61db012f150758bf
     Pseudo is Projector augmented-wave + core cor, Zval =  4.0
     Generated using "atomic" code by A. Dal Corso  v.5.0.2 svn rev. 9415
     Shape of augmentation charge: PSQ
     Using radial grid of 1141 points,  4 beta functions with: 
                l(1) =   0
                l(2) =   0
                l(3) =   1
                l(4) =   1
     Q(r) pseudized with 0 coefficients 


     atomic species   valence    mass     pseudopotential
        Si             4.00    28.05500     Si( 1.00)

     48 Sym. Ops., with inversion, found (24 have fractional translation)



   Cartesian axes

     site n.     atom                  positions (alat units)
         1           Si  tau(   1) = (   0.0000000   0.0000000   0.0000000  )
         2           Si  tau(   2) = (  -0.2500000   0.2500000   0.2500000  )

     number of k points=    29
                       cart. coord. in units 2pi/alat
        k(    1) = (   0.0000000   0.0000000   0.0000000), wk =   0.0039062
        k(    2) = (  -0.1250000   0.1250000  -0.1250000), wk =   0.0312500
        k(    3) = (  -0.2500000   0.2500000  -0.2500000), wk =   0.0312500
        k(    4) = (  -0.3750000   0.3750000  -0.3750000), wk =   0.0312500
        k(    5) = (   0.5000000  -0.5000000   0.5000000), wk =   0.0156250
        k(    6) = (   0.0000000   0.2500000   0.0000000), wk =   0.0234375
        k(    7) = (  -0.1250000   0.3750000  -0.1250000), wk =   0.0937500
        k(    8) = (  -0.2500000   0.5000000  -0.2500000), wk =   0.0937500
        k(    9) = (   0.6250000  -0.3750000   0.6250000), wk =   0.0937500
        k(   10) = (   0.5000000  -0.2500000   0.5000000), wk =   0.0937500
        k(   11) = (   0.3750000  -0.1250000   0.3750000), wk =   0.0937500
        k(   12) = (   0.2500000   0.0000000   0.2500000), wk =   0.0468750
        k(   13) = (   0.0000000   0.5000000   0.0000000), wk =   0.0234375
        k(   14) = (  -0.1250000   0.6250000  -0.1250000), wk =   0.0937500
        k(   15) = (   0.7500000  -0.2500000   0.7500000), wk =   0.0937500
        k(   16) = (   0.6250000  -0.1250000   0.6250000), wk =   0.0937500
        k(   17) = (   0.5000000   0.0000000   0.5000000), wk =   0.0468750
        k(   18) = (   0.0000000   0.7500000   0.0000000), wk =   0.0234375
        k(   19) = (   0.8750000  -0.1250000   0.8750000), wk =   0.0937500
        k(   20) = (   0.7500000   0.0000000   0.7500000), wk =   0.0468750
        k(   21) = (   0.0000000  -1.0000000   0.0000000), wk =   0.0117188
        k(   22) = (  -0.2500000   0.5000000   0.0000000), wk =   0.0937500
        k(   23) = (   0.6250000  -0.3750000   0.8750000), wk =   0.1875000
        k(   24) = (   0.5000000  -0.2500000   0.7500000), wk =   0.0937500
        k(   25) = (   0.7500000  -0.2500000   1.0000000), wk =   0.0937500
        k(   26) = (   0.6250000  -0.1250000   0.8750000), wk =   0.1875000
        k(   27) = (   0.5000000   0.0000000   0.7500000), wk =   0.0937500
        k(   28) = (  -0.2500000  -1.0000000   0.0000000), wk =   0.0468750
        k(   29) = (  -0.5000000  -1.0000000   0.0000000), wk =   0.0234375

     Dense  grid:    36685 G-vectors     FFT dimensions: (  48,  48,  48)

     Largest allocated arrays     est. size (Mb)     dimensions
        Kohn-Sham Wavefunctions         0.28 Mb     (    4645,    4)
        NL pseudopotentials             1.13 Mb     (    4645,   16)
        Each V/rho on FFT grid          1.69 Mb     (  110592)
        Each G-vector array             0.28 Mb     (   36685)
        G-vector shells                 0.00 Mb     (     360)
     Largest temporary arrays     est. size (Mb)     dimensions
        Auxiliary wavefunctions         1.13 Mb     (    4645,   16)
        Each subspace H/S matrix        0.00 Mb     (      16,   16)
        Each <psi_i|beta_j> matrix      0.00 Mb     (      16,    4)
        Arrays for rho mixing          13.50 Mb     (  110592,    8)

     Initial potential from superposition of free atoms

     starting charge    7.99888, renormalised to    8.00000
     Starting wfc are    8 randomized atomic wfcs
     Checking if some PAW data can be deallocated... 

     total cpu time spent up to now is        3.5 secs

     per-process dynamical memory:    31.9 Mb

     Self-consistent Calculation

     iteration #  1     ecut=   100.00 Ry     beta=0.70
     Davidson diagonalization with overlap
     ethr =  1.00E-02,  avg # of iterations =  2.0

     Threshold (ethr) on eigenvalues was too large:
     Diagonalizing with lowered threshold

     Davidson diagonalization with overlap
     ethr =  7.09E-04,  avg # of iterations =  1.0

     total cpu time spent up to now is       10.6 secs

     total energy              =     -93.45167997 Ry
     Harris-Foulkes estimate   =     -93.46498492 Ry
     estimated scf accuracy    <       0.05594488 Ry

     iteration #  2     ecut=   100.00 Ry     beta=0.70
     Davidson diagonalization with overlap
     ethr =  6.99E-04,  avg # of iterations =  1.0

     total cpu time spent up to now is       13.9 secs

     total energy              =     -93.45369719 Ry
     Harris-Foulkes estimate   =     -93.45383425 Ry
     estimated scf accuracy    <       0.00245774 Ry

     iteration #  3     ecut=   100.00 Ry     beta=0.70
     Davidson diagonalization with overlap
     ethr =  3.07E-05,  avg # of iterations =  2.0

     total cpu time spent up to now is       17.5 secs

     total energy              =     -93.45397258 Ry
     Harris-Foulkes estimate   =     -93.45399028 Ry
     estimated scf accuracy    <       0.00005179 Ry

     iteration #  4     ecut=   100.00 Ry     beta=0.70
     Davidson diagonalization with overlap
     ethr =  6.47E-07,  avg # of iterations =  3.0

     total cpu time spent up to now is       22.2 secs

     total energy              =     -93.45399990 Ry
     Harris-Foulkes estimate   =     -93.45400077 Ry
     estimated scf accuracy    <       0.00000232 Ry

     iteration #  5     ecut=   100.00 Ry     beta=0.70
     Davidson diagonalization with overlap
     ethr =  2.90E-08,  avg # of iterations =  2.7

     total cpu time spent up to now is       26.7 secs

     End of self-consistent calculation

          k = 0.0000 0.0000 0.0000 (  4645 PWs)   bands (ev):

    -5.7945   6.0972   6.0972   6.0972

          k =-0.1250 0.1250-0.1250 (  4618 PWs)   bands (ev):

    -5.5921   4.5007   5.8113   5.8113

          k =-0.2500 0.2500-0.2500 (  4633 PWs)   bands (ev):

    -5.0019   2.1886   5.3442   5.3442

          k =-0.3750 0.3750-0.3750 (  4618 PWs)   bands (ev):

    -4.1175   0.1863   5.0189   5.0189

          k = 0.5000-0.5000 0.5000 (  4584 PWs)   bands (ev):

    -3.4888  -0.8239   4.9075   4.9075

          k = 0.0000 0.2500 0.0000 (  4633 PWs)   bands (ev):

    -5.5239   4.7512   5.3003   5.3003

          k =-0.1250 0.3750-0.1250 (  4630 PWs)   bands (ev):

    -5.0593   2.8799   4.7929   4.8622

          k =-0.2500 0.5000-0.2500 (  4617 PWs)   bands (ev):

    -4.2523   0.8389   4.2744   4.5261

          k = 0.6250-0.3750 0.6250 (  4615 PWs)   bands (ev):

    -3.4019  -0.6080   3.8331   4.5492

          k = 0.5000-0.2500 0.5000 (  4617 PWs)   bands (ev):

    -3.6429  -0.2421   3.6547   4.8421

          k = 0.3750-0.1250 0.3750 (  4628 PWs)   bands (ev):

    -4.5556   1.4916   3.8076   5.3287

          k = 0.2500 0.0000 0.2500 (  4627 PWs)   bands (ev):

    -5.2588   3.4155   4.4880   5.8054

          k = 0.0000 0.5000 0.0000 (  4632 PWs)   bands (ev):

    -4.7218   2.5762   4.2272   4.2272

          k =-0.1250 0.6250-0.1250 (  4623 PWs)   bands (ev):

    -4.0184   1.1664   3.4538   3.9113

          k = 0.7500-0.2500 0.7500 (  4617 PWs)   bands (ev):

    -3.1027  -0.2584   2.5980   3.9138

          k = 0.6250-0.1250 0.6250 (  4593 PWs)   bands (ev):

    -2.9020  -0.5125   2.1451   4.2287

          k = 0.5000 0.0000 0.5000 (  4632 PWs)   bands (ev):

    -3.7699   0.6347   2.3858   4.7812

          k = 0.0000 0.7500 0.0000 (  4636 PWs)   bands (ev):

    -3.4210   0.3656   3.5164   3.5164

          k = 0.8750-0.1250 0.8750 (  4614 PWs)   bands (ev):

    -2.5325  -0.7100   2.6995   3.4406

          k = 0.7500 0.0000 0.7500 (  4604 PWs)   bands (ev):

    -2.1016  -1.1009   1.8457   3.6956

          k = 0.0000-1.0000 0.0000 (  4568 PWs)   bands (ev):

    -1.6871  -1.6871   3.2726   3.2726

          k =-0.2500 0.5000 0.0000 (  4624 PWs)   bands (ev):

    -4.4769   1.8156   3.4141   4.6824

          k = 0.6250-0.3750 0.8750 (  4608 PWs)   bands (ev):

    -3.5978   0.2802   2.8077   4.1880

          k = 0.5000-0.2500 0.7500 (  4602 PWs)   bands (ev):

    -2.9544  -0.6519   2.6774   3.9617

          k = 0.7500-0.2500 1.0000 (  4621 PWs)   bands (ev):

    -3.2250   0.1485   2.7715   3.3690

          k = 0.6250-0.1250 0.8750 (  4607 PWs)   bands (ev):

    -2.3607  -0.8096   2.0825   3.1707

          k = 0.5000 0.0000 0.7500 (  4585 PWs)   bands (ev):

    -2.7079  -0.4491   1.9179   3.5420

          k =-0.2500-1.0000 0.0000 (  4616 PWs)   bands (ev):

    -1.6113  -1.6113   2.7186   2.7186

          k =-0.5000-1.0000 0.0000 (  4600 PWs)   bands (ev):

    -1.5280  -1.5280   2.2900   2.2900

     highest occupied level (ev):     6.0972

!    total energy              =     -93.45400066 Ry
     Harris-Foulkes estimate   =     -93.45400072 Ry
     estimated scf accuracy    <       0.00000007 Ry

     total all-electron energy =     -1160.145737 Ry

     The total energy is the sum of the following terms:

     one-electron contribution =       5.64872504 Ry
     hartree contribution      =       1.10818268 Ry
     xc contribution           =     -12.24273749 Ry
     ewald contribution        =     -16.73568324 Ry
     one-center paw contrib.   =     -71.23248765 Ry

     convergence has been achieved in   5 iterations

     Forces acting on atoms (Ry/au):

     atom    1 type  1   force =     0.00000000    0.00000000    0.00000000
     atom    2 type  1   force =     0.00000000    0.00000000    0.00000000

     Total force =     0.000000     Total SCF correction =     0.000000


     entering subroutine stress ...

          total   stress  (Ry/bohr**3)                   (kbar)     P=    7.88
   0.00005359   0.00000000   0.00000000          7.88      0.00      0.00
   0.00000000   0.00005359  -0.00000000          0.00      7.88     -0.00
   0.00000000  -0.00000000   0.00005359          0.00     -0.00      7.88


     Writing output data file pwscf.save
 
     init_run     :      3.20s CPU      3.22s WALL (       1 calls)
     electrons    :     23.11s CPU     23.22s WALL (       1 calls)
     forces       :      0.43s CPU      0.43s WALL (       1 calls)
     stress       :      1.45s CPU      1.45s WALL (       1 calls)

     Called by init_run:
     wfcinit      :      2.07s CPU      2.08s WALL (       1 calls)
     potinit      :      0.32s CPU      0.32s WALL (       1 calls)

     Called by electrons:
     c_bands      :     17.16s CPU     17.22s WALL (       6 calls)
     sum_band     :      4.08s CPU      4.10s WALL (       6 calls)
     v_of_rho     :      0.80s CPU      0.80s WALL (       6 calls)
     newd         :      0.38s CPU      0.38s WALL (       6 calls)
     mix_rho      :      0.07s CPU      0.07s WALL (       6 calls)

     Called by c_bands:
     init_us_2    :      0.76s CPU      0.77s WALL (     435 calls)
     cegterg      :     15.95s CPU     16.00s WALL (     174 calls)

     Called by *egterg:
     h_psi        :     16.56s CPU     16.61s WALL (     542 calls)
     s_psi        :      0.31s CPU      0.30s WALL (     542 calls)
     g_psi        :      0.15s CPU      0.13s WALL (     339 calls)
     cdiaghg      :      0.07s CPU      0.06s WALL (     484 calls)

     Called by h_psi:
     add_vuspsi   :      0.29s CPU      0.30s WALL (     542 calls)

     General routines
     calbec       :      0.50s CPU      0.49s WALL (     774 calls)
     fft          :      0.62s CPU      0.62s WALL (     105 calls)
     fftw         :     16.92s CPU     16.96s WALL (    4834 calls)
     davcio       :      0.00s CPU      0.00s WALL (      29 calls)
 
     Parallel routines
     fft_scatter  :      2.15s CPU      2.15s WALL (    4939 calls)

     PAW routines
     PAW_pot      :      0.95s CPU      0.95s WALL (       6 calls)
     PAW_symme    :      0.00s CPU      0.00s WALL (      12 calls)
 
     PWSCF        :    28.64s CPU        29.17s WALL

 
   This run was terminated on:  20: 5:19  28Apr2015            

=------------------------------------------------------------------------------=
   JOB DONE.
=------------------------------------------------------------------------------=
