
     Program PWSCF v.5.1 starts on 28Apr2015 at 19:57:51 

     This program is part of the open-source Quantum ESPRESSO suite
     for quantum simulation of materials; please cite
         "P. Giannozzi et al., J. Phys.:Condens. Matter 21 395502 (2009);
          URL http://www.quantum-espresso.org", 
     in publications or presentations arising from this work. More details at
     http://www.quantum-espresso.org/quote

     Parallel version (MPI), running on     1 processors
     Waiting for input...
     Reading input from standard input
Warning: card &IONS ignored
Warning: card / ignored
Warning: card &CELL ignored
Warning: card / ignored

     Current dimensions of program PWSCF are:
     Max number of different atomic species (ntypx) = 10
     Max number of k-points (npk) =  40000
     Max angular momentum in pseudopotentials (lmaxx) =  3
               file Si.pbe-n-kjpaw_psl.0.1.UPF: wavefunction(s)  3S renormalized

     Subspace diagonalization in iterative solution of the eigenvalue problem:
     a serial algorithm will be used

 
     G-vector sticks info
     --------------------
     sticks:   dense  smooth     PW     G-vecs:    dense   smooth      PW
     Sum         151     151     55                 1211     1211     283
 


     bravais-lattice index     =            2
     lattice parameter (alat)  =      10.3000  a.u.
     unit-cell volume          =     273.1818 (a.u.)^3
     number of atoms/cell      =            2
     number of atomic types    =            1
     number of electrons       =         8.00
     number of Kohn-Sham states=            4
     kinetic-energy cutoff     =      10.0000  Ry
     charge density cutoff     =      40.0000  Ry
     convergence threshold     =      1.0E-06
     mixing beta               =       0.7000
     number of iterations used =            8  plain     mixing
     Exchange-correlation      =  SLA  PW   PBX  PBC ( 1  4  3  4 0)

     celldm(1)=  10.300000  celldm(2)=   0.000000  celldm(3)=   0.000000
     celldm(4)=   0.000000  celldm(5)=   0.000000  celldm(6)=   0.000000

     crystal axes: (cart. coord. in units of alat)
               a(1) = (  -0.500000   0.000000   0.500000 )  
               a(2) = (   0.000000   0.500000   0.500000 )  
               a(3) = (  -0.500000   0.500000   0.000000 )  

     reciprocal axes: (cart. coord. in units 2 pi/alat)
               b(1) = ( -1.000000 -1.000000  1.000000 )  
               b(2) = (  1.000000  1.000000  1.000000 )  
               b(3) = ( -1.000000  1.000000 -1.000000 )  


     PseudoPot. # 1 for Si read from file:
     ./Si.pbe-n-kjpaw_psl.0.1.UPF
     MD5 check sum: b9d333a40e496bef61db012f150758bf
     Pseudo is Projector augmented-wave + core cor, Zval =  4.0
     Generated using "atomic" code by A. Dal Corso  v.5.0.2 svn rev. 9415
     Shape of augmentation charge: PSQ
     Using radial grid of 1141 points,  4 beta functions with: 
                l(1) =   0
                l(2) =   0
                l(3) =   1
                l(4) =   1
     Q(r) pseudized with 0 coefficients 


     atomic species   valence    mass     pseudopotential
        Si             4.00    28.05500     Si( 1.00)

     24 Sym. Ops. (no inversion) found
          (note: 24 additional sym.ops. were found but ignored
           their fractional translations are incommensurate with FFT grid)


   Cartesian axes

     site n.     atom                  positions (alat units)
         1           Si  tau(   1) = (   0.0000000   0.0000000   0.0000000  )
         2           Si  tau(   2) = (  -0.2500000   0.2500000   0.2500000  )

     number of k points=    10
                       cart. coord. in units 2pi/alat
        k(    1) = (   0.0000000   0.0000000   0.0000000), wk =   0.0160000
        k(    2) = (  -0.2000000   0.2000000  -0.2000000), wk =   0.1280000
        k(    3) = (  -0.4000000   0.4000000  -0.4000000), wk =   0.1280000
        k(    4) = (   0.0000000   0.4000000   0.0000000), wk =   0.0960000
        k(    5) = (  -0.2000000   0.6000000  -0.2000000), wk =   0.3840000
        k(    6) = (   0.6000000  -0.2000000   0.6000000), wk =   0.3840000
        k(    7) = (   0.4000000   0.0000000   0.4000000), wk =   0.1920000
        k(    8) = (   0.0000000   0.8000000   0.0000000), wk =   0.0960000
        k(    9) = (   0.8000000   0.0000000   0.8000000), wk =   0.1920000
        k(   10) = (   0.6000000  -0.2000000   1.0000000), wk =   0.3840000

     Dense  grid:     1211 G-vectors     FFT dimensions: (  15,  15,  15)

     Largest allocated arrays     est. size (Mb)     dimensions
        Kohn-Sham Wavefunctions         0.01 Mb     (     150,    4)
        NL pseudopotentials             0.04 Mb     (     150,   16)
        Each V/rho on FFT grid          0.05 Mb     (    3375)
        Each G-vector array             0.01 Mb     (    1211)
        G-vector shells                 0.00 Mb     (      38)
     Largest temporary arrays     est. size (Mb)     dimensions
        Auxiliary wavefunctions         0.04 Mb     (     150,   16)
        Each subspace H/S matrix        0.00 Mb     (      16,   16)
        Each <psi_i|beta_j> matrix      0.00 Mb     (      16,    4)
        Arrays for rho mixing           0.41 Mb     (    3375,    8)

     Check: negative/imaginary core charge=   -0.000135    0.000000

     Initial potential from superposition of free atoms

     starting charge    7.99888, renormalised to    8.00000
     Starting wfc are    8 randomized atomic wfcs
     Checking if some PAW data can be deallocated... 

     total cpu time spent up to now is        0.7 secs

     per-process dynamical memory:     5.8 Mb

     Self-consistent Calculation

     iteration #  1     ecut=    10.00 Ry     beta=0.70
     Davidson diagonalization with overlap
     ethr =  1.00E-02,  avg # of iterations =  2.0

     Threshold (ethr) on eigenvalues was too large:
     Diagonalizing with lowered threshold

     Davidson diagonalization with overlap
     ethr =  6.97E-04,  avg # of iterations =  1.1

     total cpu time spent up to now is        0.9 secs

     total energy              =     -93.43571079 Ry
     Harris-Foulkes estimate   =     -93.44844026 Ry
     estimated scf accuracy    <       0.05608938 Ry

     iteration #  2     ecut=    10.00 Ry     beta=0.70
     Davidson diagonalization with overlap
     ethr =  7.01E-04,  avg # of iterations =  1.0

     total cpu time spent up to now is        1.1 secs

     total energy              =     -93.43737554 Ry
     Harris-Foulkes estimate   =     -93.43755558 Ry
     estimated scf accuracy    <       0.00249848 Ry

     iteration #  3     ecut=    10.00 Ry     beta=0.70
     Davidson diagonalization with overlap
     ethr =  3.12E-05,  avg # of iterations =  1.7

     total cpu time spent up to now is        1.3 secs

     total energy              =     -93.43760798 Ry
     Harris-Foulkes estimate   =     -93.43761966 Ry
     estimated scf accuracy    <       0.00004303 Ry

     iteration #  4     ecut=    10.00 Ry     beta=0.70
     Davidson diagonalization with overlap
     ethr =  5.38E-07,  avg # of iterations =  2.9

     total cpu time spent up to now is        1.5 secs

     total energy              =     -93.43763057 Ry
     Harris-Foulkes estimate   =     -93.43763081 Ry
     estimated scf accuracy    <       0.00000103 Ry

     iteration #  5     ecut=    10.00 Ry     beta=0.70
     Davidson diagonalization with overlap
     ethr =  1.29E-08,  avg # of iterations =  2.5

     total cpu time spent up to now is        1.7 secs

     End of self-consistent calculation

          k = 0.0000 0.0000 0.0000 (   137 PWs)   bands (ev):

    -5.7835   6.1912   6.1912   6.1912

          k =-0.2000 0.2000-0.2000 (   150 PWs)   bands (ev):

    -5.2701   3.1447   5.5872   5.5872

          k =-0.4000 0.4000-0.4000 (   147 PWs)   bands (ev):

    -3.9195  -0.1073   5.0305   5.0305

          k = 0.0000 0.4000 0.0000 (   149 PWs)   bands (ev):

    -5.0931   3.5091   4.6788   4.6788

          k =-0.2000 0.6000-0.2000 (   145 PWs)   bands (ev):

    -3.9604   0.8388   3.5441   4.1680

          k = 0.6000-0.2000 0.6000 (   149 PWs)   bands (ev):

    -3.0860  -0.5417   2.7395   4.4462

          k = 0.4000 0.0000 0.4000 (   144 PWs)   bands (ev):

    -4.4446   1.6680   3.1743   5.3168

          k = 0.0000 0.8000 0.0000 (   141 PWs)   bands (ev):

    -3.0899  -0.0339   3.4621   3.4621

          k = 0.8000 0.0000 0.8000 (   142 PWs)   bands (ev):

    -1.8969  -1.2883   2.1193   3.5851

          k = 0.6000-0.2000 1.0000 (   142 PWs)   bands (ev):

    -2.6553  -0.4175   2.2025   3.1853

     highest occupied level (ev):     6.1912

!    total energy              =     -93.43763085 Ry
     Harris-Foulkes estimate   =     -93.43763087 Ry
     estimated scf accuracy    <       0.00000004 Ry

     total all-electron energy =     -1160.129367 Ry

     The total energy is the sum of the following terms:

     one-electron contribution =       5.64414573 Ry
     hartree contribution      =       1.11604340 Ry
     xc contribution           =     -12.24694905 Ry
     ewald contribution        =     -16.73568325 Ry
     one-center paw contrib.   =     -71.21518769 Ry

     convergence has been achieved in   5 iterations

     Forces acting on atoms (Ry/au):

     atom    1 type  1   force =     0.00000000    0.00000000    0.00000000
     atom    2 type  1   force =     0.00000000    0.00000000    0.00000000

     Total force =     0.000000     Total SCF correction =     0.000000


     entering subroutine stress ...

          total   stress  (Ry/bohr**3)                   (kbar)     P=   29.54
   0.00020078   0.00000000   0.00000000         29.54      0.00      0.00
   0.00000000   0.00020078  -0.00000000          0.00     29.54     -0.00
   0.00000000  -0.00000000   0.00020078          0.00     -0.00     29.54


     Writing output data file pwscf.save
 
     init_run     :      0.41s CPU      0.42s WALL (       1 calls)
     electrons    :      0.98s CPU      1.00s WALL (       1 calls)
     forces       :      0.01s CPU      0.01s WALL (       1 calls)
     stress       :      0.03s CPU      0.03s WALL (       1 calls)

     Called by init_run:
     wfcinit      :      0.01s CPU      0.02s WALL (       1 calls)
     potinit      :      0.16s CPU      0.16s WALL (       1 calls)

     Called by electrons:
     c_bands      :      0.12s CPU      0.13s WALL (       6 calls)
     sum_band     :      0.03s CPU      0.03s WALL (       6 calls)
     v_of_rho     :      0.02s CPU      0.02s WALL (       6 calls)
     newd         :      0.01s CPU      0.01s WALL (       6 calls)
     mix_rho      :      0.00s CPU      0.00s WALL (       6 calls)

     Called by c_bands:
     init_us_2    :      0.01s CPU      0.01s WALL (     150 calls)
     cegterg      :      0.11s CPU      0.11s WALL (      60 calls)

     Called by *egterg:
     h_psi        :      0.09s CPU      0.10s WALL (     182 calls)
     s_psi        :      0.00s CPU      0.00s WALL (     182 calls)
     g_psi        :      0.00s CPU      0.00s WALL (     112 calls)
     cdiaghg      :      0.01s CPU      0.01s WALL (     162 calls)

     Called by h_psi:
     add_vuspsi   :      0.00s CPU      0.00s WALL (     182 calls)

     General routines
     calbec       :      0.00s CPU      0.01s WALL (     262 calls)
     fft          :      0.01s CPU      0.01s WALL (     105 calls)
     fftw         :      0.09s CPU      0.09s WALL (    1644 calls)
     davcio       :      0.00s CPU      0.00s WALL (      10 calls)
 
     Parallel routines
     fft_scatter  :      0.00s CPU      0.01s WALL (    1749 calls)

     PAW routines
     PAW_pot      :      0.95s CPU      0.95s WALL (       6 calls)
     PAW_symme    :      0.00s CPU      0.00s WALL (      12 calls)
 
     PWSCF        :     1.80s CPU         2.08s WALL

 
   This run was terminated on:  19:57:53  28Apr2015            

=------------------------------------------------------------------------------=
   JOB DONE.
=------------------------------------------------------------------------------=
