
     Program PWSCF v.5.1 starts on 28Apr2015 at 20: 2:51 

     This program is part of the open-source Quantum ESPRESSO suite
     for quantum simulation of materials; please cite
         "P. Giannozzi et al., J. Phys.:Condens. Matter 21 395502 (2009);
          URL http://www.quantum-espresso.org", 
     in publications or presentations arising from this work. More details at
     http://www.quantum-espresso.org/quote

     Parallel version (MPI), running on     1 processors
     Waiting for input...
     Reading input from standard input
Warning: card &IONS ignored
Warning: card / ignored
Warning: card &CELL ignored
Warning: card / ignored

     Current dimensions of program PWSCF are:
     Max number of different atomic species (ntypx) = 10
     Max number of k-points (npk) =  40000
     Max angular momentum in pseudopotentials (lmaxx) =  3
               file Si.pbe-n-kjpaw_psl.0.1.UPF: wavefunction(s)  3S renormalized

     Subspace diagonalization in iterative solution of the eigenvalue problem:
     a serial algorithm will be used

 
     G-vector sticks info
     --------------------
     sticks:   dense  smooth     PW     G-vecs:    dense   smooth      PW
     Sum         151     151     55                 1211     1211     283
 


     bravais-lattice index     =            2
     lattice parameter (alat)  =      10.3000  a.u.
     unit-cell volume          =     273.1818 (a.u.)^3
     number of atoms/cell      =            2
     number of atomic types    =            1
     number of electrons       =         8.00
     number of Kohn-Sham states=            4
     kinetic-energy cutoff     =      10.0000  Ry
     charge density cutoff     =      40.0000  Ry
     convergence threshold     =      1.0E-06
     mixing beta               =       0.7000
     number of iterations used =            8  plain     mixing
     Exchange-correlation      =  SLA  PW   PBX  PBC ( 1  4  3  4 0)

     celldm(1)=  10.300000  celldm(2)=   0.000000  celldm(3)=   0.000000
     celldm(4)=   0.000000  celldm(5)=   0.000000  celldm(6)=   0.000000

     crystal axes: (cart. coord. in units of alat)
               a(1) = (  -0.500000   0.000000   0.500000 )  
               a(2) = (   0.000000   0.500000   0.500000 )  
               a(3) = (  -0.500000   0.500000   0.000000 )  

     reciprocal axes: (cart. coord. in units 2 pi/alat)
               b(1) = ( -1.000000 -1.000000  1.000000 )  
               b(2) = (  1.000000  1.000000  1.000000 )  
               b(3) = ( -1.000000  1.000000 -1.000000 )  


     PseudoPot. # 1 for Si read from file:
     ./Si.pbe-n-kjpaw_psl.0.1.UPF
     MD5 check sum: b9d333a40e496bef61db012f150758bf
     Pseudo is Projector augmented-wave + core cor, Zval =  4.0
     Generated using "atomic" code by A. Dal Corso  v.5.0.2 svn rev. 9415
     Shape of augmentation charge: PSQ
     Using radial grid of 1141 points,  4 beta functions with: 
                l(1) =   0
                l(2) =   0
                l(3) =   1
                l(4) =   1
     Q(r) pseudized with 0 coefficients 


     atomic species   valence    mass     pseudopotential
        Si             4.00    28.05500     Si( 1.00)

     24 Sym. Ops. (no inversion) found
          (note: 24 additional sym.ops. were found but ignored
           their fractional translations are incommensurate with FFT grid)


   Cartesian axes

     site n.     atom                  positions (alat units)
         1           Si  tau(   1) = (   0.0000000   0.0000000   0.0000000  )
         2           Si  tau(   2) = (  -0.2500000   0.2500000   0.2500000  )

     number of k points=    29
                       cart. coord. in units 2pi/alat
        k(    1) = (   0.0000000   0.0000000   0.0000000), wk =   0.0039062
        k(    2) = (  -0.1250000   0.1250000  -0.1250000), wk =   0.0312500
        k(    3) = (  -0.2500000   0.2500000  -0.2500000), wk =   0.0312500
        k(    4) = (  -0.3750000   0.3750000  -0.3750000), wk =   0.0312500
        k(    5) = (   0.5000000  -0.5000000   0.5000000), wk =   0.0156250
        k(    6) = (   0.0000000   0.2500000   0.0000000), wk =   0.0234375
        k(    7) = (  -0.1250000   0.3750000  -0.1250000), wk =   0.0937500
        k(    8) = (  -0.2500000   0.5000000  -0.2500000), wk =   0.0937500
        k(    9) = (   0.6250000  -0.3750000   0.6250000), wk =   0.0937500
        k(   10) = (   0.5000000  -0.2500000   0.5000000), wk =   0.0937500
        k(   11) = (   0.3750000  -0.1250000   0.3750000), wk =   0.0937500
        k(   12) = (   0.2500000   0.0000000   0.2500000), wk =   0.0468750
        k(   13) = (   0.0000000   0.5000000   0.0000000), wk =   0.0234375
        k(   14) = (  -0.1250000   0.6250000  -0.1250000), wk =   0.0937500
        k(   15) = (   0.7500000  -0.2500000   0.7500000), wk =   0.0937500
        k(   16) = (   0.6250000  -0.1250000   0.6250000), wk =   0.0937500
        k(   17) = (   0.5000000   0.0000000   0.5000000), wk =   0.0468750
        k(   18) = (   0.0000000   0.7500000   0.0000000), wk =   0.0234375
        k(   19) = (   0.8750000  -0.1250000   0.8750000), wk =   0.0937500
        k(   20) = (   0.7500000   0.0000000   0.7500000), wk =   0.0468750
        k(   21) = (   0.0000000  -1.0000000   0.0000000), wk =   0.0117188
        k(   22) = (  -0.2500000   0.5000000   0.0000000), wk =   0.0937500
        k(   23) = (   0.6250000  -0.3750000   0.8750000), wk =   0.1875000
        k(   24) = (   0.5000000  -0.2500000   0.7500000), wk =   0.0937500
        k(   25) = (   0.7500000  -0.2500000   1.0000000), wk =   0.0937500
        k(   26) = (   0.6250000  -0.1250000   0.8750000), wk =   0.1875000
        k(   27) = (   0.5000000   0.0000000   0.7500000), wk =   0.0937500
        k(   28) = (  -0.2500000  -1.0000000   0.0000000), wk =   0.0468750
        k(   29) = (  -0.5000000  -1.0000000   0.0000000), wk =   0.0234375

     Dense  grid:     1211 G-vectors     FFT dimensions: (  15,  15,  15)

     Largest allocated arrays     est. size (Mb)     dimensions
        Kohn-Sham Wavefunctions         0.01 Mb     (     156,    4)
        NL pseudopotentials             0.04 Mb     (     156,   16)
        Each V/rho on FFT grid          0.05 Mb     (    3375)
        Each G-vector array             0.01 Mb     (    1211)
        G-vector shells                 0.00 Mb     (      38)
     Largest temporary arrays     est. size (Mb)     dimensions
        Auxiliary wavefunctions         0.04 Mb     (     156,   16)
        Each subspace H/S matrix        0.00 Mb     (      16,   16)
        Each <psi_i|beta_j> matrix      0.00 Mb     (      16,    4)
        Arrays for rho mixing           0.41 Mb     (    3375,    8)

     Check: negative/imaginary core charge=   -0.000135    0.000000

     Initial potential from superposition of free atoms

     starting charge    7.99888, renormalised to    8.00000
     Starting wfc are    8 randomized atomic wfcs
     Checking if some PAW data can be deallocated... 

     total cpu time spent up to now is        0.7 secs

     per-process dynamical memory:     5.8 Mb

     Self-consistent Calculation

     iteration #  1     ecut=    10.00 Ry     beta=0.70
     Davidson diagonalization with overlap
     ethr =  1.00E-02,  avg # of iterations =  2.0

     Threshold (ethr) on eigenvalues was too large:
     Diagonalizing with lowered threshold

     Davidson diagonalization with overlap
     ethr =  6.70E-04,  avg # of iterations =  1.0

     total cpu time spent up to now is        1.1 secs

     total energy              =     -93.44032830 Ry
     Harris-Foulkes estimate   =     -93.45243634 Ry
     estimated scf accuracy    <       0.05380794 Ry

     iteration #  2     ecut=    10.00 Ry     beta=0.70
     Davidson diagonalization with overlap
     ethr =  6.73E-04,  avg # of iterations =  1.0

     total cpu time spent up to now is        1.3 secs

     total energy              =     -93.44191436 Ry
     Harris-Foulkes estimate   =     -93.44209561 Ry
     estimated scf accuracy    <       0.00239961 Ry

     iteration #  3     ecut=    10.00 Ry     beta=0.70
     Davidson diagonalization with overlap
     ethr =  3.00E-05,  avg # of iterations =  1.8

     total cpu time spent up to now is        1.5 secs

     total energy              =     -93.44216164 Ry
     Harris-Foulkes estimate   =     -93.44217688 Ry
     estimated scf accuracy    <       0.00004351 Ry

     iteration #  4     ecut=    10.00 Ry     beta=0.70
     Davidson diagonalization with overlap
     ethr =  5.44E-07,  avg # of iterations =  2.8

     total cpu time spent up to now is        1.8 secs

     total energy              =     -93.44218204 Ry
     Harris-Foulkes estimate   =     -93.44218273 Ry
     estimated scf accuracy    <       0.00000216 Ry

     iteration #  5     ecut=    10.00 Ry     beta=0.70
     Davidson diagonalization with overlap
     ethr =  2.70E-08,  avg # of iterations =  2.2

     total cpu time spent up to now is        2.0 secs

     End of self-consistent calculation

          k = 0.0000 0.0000 0.0000 (   137 PWs)   bands (ev):

    -5.7966   6.1750   6.1750   6.1750

          k =-0.1250 0.1250-0.1250 (   153 PWs)   bands (ev):

    -5.5942   4.5405   5.8664   5.8664

          k =-0.2500 0.2500-0.2500 (   150 PWs)   bands (ev):

    -5.0032   2.2141   5.3894   5.3894

          k =-0.3750 0.3750-0.3750 (   147 PWs)   bands (ev):

    -4.1175   0.2017   5.0570   5.0570

          k = 0.5000-0.5000 0.5000 (   156 PWs)   bands (ev):

    -3.4898  -0.8123   4.9400   4.9400

          k = 0.0000 0.2500 0.0000 (   153 PWs)   bands (ev):

    -5.5259   4.7903   5.3475   5.3475

          k =-0.1250 0.3750-0.1250 (   146 PWs)   bands (ev):

    -5.0606   2.9076   4.8392   4.9060

          k =-0.2500 0.5000-0.2500 (   147 PWs)   bands (ev):

    -4.2524   0.8563   4.3113   4.5619

          k = 0.6250-0.3750 0.6250 (   148 PWs)   bands (ev):

    -3.4012  -0.5949   3.8674   4.5823

          k = 0.5000-0.2500 0.5000 (   148 PWs)   bands (ev):

    -3.6422  -0.2291   3.6900   4.8786

          k = 0.3750-0.1250 0.3750 (   148 PWs)   bands (ev):

    -4.5561   1.5123   3.8439   5.3717

          k = 0.2500 0.0000 0.2500 (   145 PWs)   bands (ev):

    -5.2604   3.4464   4.5322   5.8586

          k = 0.0000 0.5000 0.0000 (   149 PWs)   bands (ev):

    -4.7227   2.5988   4.2620   4.2620

          k =-0.1250 0.6250-0.1250 (   143 PWs)   bands (ev):

    -4.0179   1.1826   3.4882   3.9441

          k = 0.7500-0.2500 0.7500 (   145 PWs)   bands (ev):

    -3.1008  -0.2461   2.6298   3.9447

          k = 0.6250-0.1250 0.6250 (   147 PWs)   bands (ev):

    -2.8994  -0.5009   2.1730   4.2613

          k = 0.5000 0.0000 0.5000 (   144 PWs)   bands (ev):

    -3.7689   0.6494   2.4155   4.8207

          k = 0.0000 0.7500 0.0000 (   145 PWs)   bands (ev):

    -3.4194   0.3802   3.5374   3.5374

          k = 0.8750-0.1250 0.8750 (   144 PWs)   bands (ev):

    -2.5294  -0.7016   2.7258   3.4649

          k = 0.7500 0.0000 0.7500 (   138 PWs)   bands (ev):

    -2.0970  -1.0904   1.8749   3.7276

          k = 0.0000-1.0000 0.0000 (   150 PWs)   bands (ev):

    -1.6829  -1.6821   3.2895   3.2895

          k =-0.2500 0.5000 0.0000 (   146 PWs)   bands (ev):

    -4.4772   1.8356   3.4474   4.7232

          k = 0.6250-0.3750 0.8750 (   147 PWs)   bands (ev):

    -3.5968   0.2942   2.8376   4.2243

          k = 0.5000-0.2500 0.7500 (   142 PWs)   bands (ev):

    -2.9520  -0.6379   2.7108   3.9962

          k = 0.7500-0.2500 1.0000 (   149 PWs)   bands (ev):

    -3.2232   0.1598   2.7990   3.3986

          k = 0.6250-0.1250 0.8750 (   145 PWs)   bands (ev):

    -2.3568  -0.7998   2.1107   3.1997

          k = 0.5000 0.0000 0.7500 (   148 PWs)   bands (ev):

    -2.7049  -0.4384   1.9451   3.5761

          k =-0.2500-1.0000 0.0000 (   142 PWs)   bands (ev):

    -1.6054  -1.6046   2.7450   2.7450

          k =-0.5000-1.0000 0.0000 (   144 PWs)   bands (ev):

    -1.5218  -1.5209   2.3172   2.3172

     highest occupied level (ev):     6.1750

!    total energy              =     -93.44218246 Ry
     Harris-Foulkes estimate   =     -93.44218250 Ry
     estimated scf accuracy    <       0.00000005 Ry

     total all-electron energy =     -1160.133919 Ry

     The total energy is the sum of the following terms:

     one-electron contribution =       5.64435383 Ry
     hartree contribution      =       1.10693273 Ry
     xc contribution           =     -12.24246490 Ry
     ewald contribution        =     -16.73568325 Ry
     one-center paw contrib.   =     -71.21532087 Ry

     convergence has been achieved in   5 iterations

     Forces acting on atoms (Ry/au):

     atom    1 type  1   force =    -0.00000000   -0.00000000   -0.00000000
     atom    2 type  1   force =     0.00000000    0.00000000    0.00000000

     Total force =     0.000000     Total SCF correction =     0.000000


     entering subroutine stress ...

          total   stress  (Ry/bohr**3)                   (kbar)     P=   27.61
   0.00018768  -0.00000000  -0.00000000         27.61     -0.00     -0.00
  -0.00000000   0.00018768  -0.00000000         -0.00     27.61     -0.00
   0.00000000   0.00000000   0.00018768          0.00      0.00     27.61


     Writing output data file pwscf.save
 
     init_run     :      0.44s CPU      0.44s WALL (       1 calls)
     electrons    :      1.22s CPU      1.46s WALL (       1 calls)
     forces       :      0.01s CPU      0.01s WALL (       1 calls)
     stress       :      0.04s CPU      0.05s WALL (       1 calls)

     Called by init_run:
     wfcinit      :      0.04s CPU      0.04s WALL (       1 calls)
     potinit      :      0.16s CPU      0.16s WALL (       1 calls)

     Called by electrons:
     c_bands      :      0.34s CPU      0.37s WALL (       6 calls)
     sum_band     :      0.07s CPU      0.08s WALL (       6 calls)
     v_of_rho     :      0.02s CPU      0.02s WALL (       6 calls)
     newd         :      0.01s CPU      0.01s WALL (       6 calls)
     mix_rho      :      0.00s CPU      0.00s WALL (       6 calls)

     Called by c_bands:
     init_us_2    :      0.02s CPU      0.02s WALL (     435 calls)
     cegterg      :      0.29s CPU      0.33s WALL (     174 calls)

     Called by *egterg:
     h_psi        :      0.27s CPU      0.28s WALL (     516 calls)
     s_psi        :      0.01s CPU      0.01s WALL (     516 calls)
     g_psi        :      0.01s CPU      0.00s WALL (     313 calls)
     cdiaghg      :      0.02s CPU      0.03s WALL (     458 calls)

     Called by h_psi:
     add_vuspsi   :      0.01s CPU      0.01s WALL (     516 calls)

     General routines
     calbec       :      0.02s CPU      0.02s WALL (     748 calls)
     fft          :      0.01s CPU      0.01s WALL (     105 calls)
     fftw         :      0.25s CPU      0.27s WALL (    4732 calls)
     davcio       :      0.00s CPU      0.00s WALL (      29 calls)
 
     Parallel routines
     fft_scatter  :      0.02s CPU      0.03s WALL (    4837 calls)

     PAW routines
     PAW_pot      :      0.95s CPU      0.95s WALL (       6 calls)
     PAW_symme    :      0.00s CPU      0.00s WALL (      12 calls)
 
     PWSCF        :     2.14s CPU         8.28s WALL

 
   This run was terminated on:  20: 2:59  28Apr2015            

=------------------------------------------------------------------------------=
   JOB DONE.
=------------------------------------------------------------------------------=
