
     Program PWSCF v.5.1 starts on 28Apr2015 at 20: 0:43 

     This program is part of the open-source Quantum ESPRESSO suite
     for quantum simulation of materials; please cite
         "P. Giannozzi et al., J. Phys.:Condens. Matter 21 395502 (2009);
          URL http://www.quantum-espresso.org", 
     in publications or presentations arising from this work. More details at
     http://www.quantum-espresso.org/quote

     Parallel version (MPI), running on     1 processors
     Waiting for input...
     Reading input from standard input
Warning: card &IONS ignored
Warning: card / ignored
Warning: card &CELL ignored
Warning: card / ignored

     Current dimensions of program PWSCF are:
     Max number of different atomic species (ntypx) = 10
     Max number of k-points (npk) =  40000
     Max angular momentum in pseudopotentials (lmaxx) =  3
               file Si.pbe-n-kjpaw_psl.0.1.UPF: wavefunction(s)  3S renormalized

     Subspace diagonalization in iterative solution of the eigenvalue problem:
     a serial algorithm will be used

 
     G-vector sticks info
     --------------------
     sticks:   dense  smooth     PW     G-vecs:    dense   smooth      PW
     Sum        1459    1459    421                36685    36685    5769
 


     bravais-lattice index     =            2
     lattice parameter (alat)  =      10.3000  a.u.
     unit-cell volume          =     273.1818 (a.u.)^3
     number of atoms/cell      =            2
     number of atomic types    =            1
     number of electrons       =         8.00
     number of Kohn-Sham states=            4
     kinetic-energy cutoff     =     100.0000  Ry
     charge density cutoff     =     400.0000  Ry
     convergence threshold     =      1.0E-06
     mixing beta               =       0.7000
     number of iterations used =            8  plain     mixing
     Exchange-correlation      =  SLA  PW   PBX  PBC ( 1  4  3  4 0)

     celldm(1)=  10.300000  celldm(2)=   0.000000  celldm(3)=   0.000000
     celldm(4)=   0.000000  celldm(5)=   0.000000  celldm(6)=   0.000000

     crystal axes: (cart. coord. in units of alat)
               a(1) = (  -0.500000   0.000000   0.500000 )  
               a(2) = (   0.000000   0.500000   0.500000 )  
               a(3) = (  -0.500000   0.500000   0.000000 )  

     reciprocal axes: (cart. coord. in units 2 pi/alat)
               b(1) = ( -1.000000 -1.000000  1.000000 )  
               b(2) = (  1.000000  1.000000  1.000000 )  
               b(3) = ( -1.000000  1.000000 -1.000000 )  


     PseudoPot. # 1 for Si read from file:
     ./Si.pbe-n-kjpaw_psl.0.1.UPF
     MD5 check sum: b9d333a40e496bef61db012f150758bf
     Pseudo is Projector augmented-wave + core cor, Zval =  4.0
     Generated using "atomic" code by A. Dal Corso  v.5.0.2 svn rev. 9415
     Shape of augmentation charge: PSQ
     Using radial grid of 1141 points,  4 beta functions with: 
                l(1) =   0
                l(2) =   0
                l(3) =   1
                l(4) =   1
     Q(r) pseudized with 0 coefficients 


     atomic species   valence    mass     pseudopotential
        Si             4.00    28.05500     Si( 1.00)

     48 Sym. Ops., with inversion, found (24 have fractional translation)



   Cartesian axes

     site n.     atom                  positions (alat units)
         1           Si  tau(   1) = (   0.0000000   0.0000000   0.0000000  )
         2           Si  tau(   2) = (  -0.2500000   0.2500000   0.2500000  )

     number of k points=    16
                       cart. coord. in units 2pi/alat
        k(    1) = (   0.0000000   0.0000000   0.0000000), wk =   0.0092593
        k(    2) = (  -0.1666667   0.1666667  -0.1666667), wk =   0.0740741
        k(    3) = (  -0.3333333   0.3333333  -0.3333333), wk =   0.0740741
        k(    4) = (   0.5000000  -0.5000000   0.5000000), wk =   0.0370370
        k(    5) = (   0.0000000   0.3333333   0.0000000), wk =   0.0555556
        k(    6) = (  -0.1666667   0.5000000  -0.1666667), wk =   0.2222222
        k(    7) = (   0.6666667  -0.3333333   0.6666667), wk =   0.2222222
        k(    8) = (   0.5000000  -0.1666667   0.5000000), wk =   0.2222222
        k(    9) = (   0.3333333   0.0000000   0.3333333), wk =   0.1111111
        k(   10) = (   0.0000000   0.6666667   0.0000000), wk =   0.0555556
        k(   11) = (   0.8333333  -0.1666667   0.8333333), wk =   0.2222222
        k(   12) = (   0.6666667  -0.0000000   0.6666667), wk =   0.1111111
        k(   13) = (   0.0000000  -1.0000000   0.0000000), wk =   0.0277778
        k(   14) = (   0.6666667  -0.3333333   1.0000000), wk =   0.2222222
        k(   15) = (   0.5000000  -0.1666667   0.8333333), wk =   0.2222222
        k(   16) = (  -0.3333333  -1.0000000   0.0000000), wk =   0.1111111

     Dense  grid:    36685 G-vectors     FFT dimensions: (  48,  48,  48)

     Largest allocated arrays     est. size (Mb)     dimensions
        Kohn-Sham Wavefunctions         0.28 Mb     (    4645,    4)
        NL pseudopotentials             1.13 Mb     (    4645,   16)
        Each V/rho on FFT grid          1.69 Mb     (  110592)
        Each G-vector array             0.28 Mb     (   36685)
        G-vector shells                 0.00 Mb     (     360)
     Largest temporary arrays     est. size (Mb)     dimensions
        Auxiliary wavefunctions         1.13 Mb     (    4645,   16)
        Each subspace H/S matrix        0.00 Mb     (      16,   16)
        Each <psi_i|beta_j> matrix      0.00 Mb     (      16,    4)
        Arrays for rho mixing          13.50 Mb     (  110592,    8)

     Initial potential from superposition of free atoms

     starting charge    7.99888, renormalised to    8.00000
     Starting wfc are    8 randomized atomic wfcs
     Checking if some PAW data can be deallocated... 

     total cpu time spent up to now is        2.6 secs

     per-process dynamical memory:    28.9 Mb

     Self-consistent Calculation

     iteration #  1     ecut=   100.00 Ry     beta=0.70
     Davidson diagonalization with overlap
     ethr =  1.00E-02,  avg # of iterations =  2.0

     Threshold (ethr) on eigenvalues was too large:
     Diagonalizing with lowered threshold

     Davidson diagonalization with overlap
     ethr =  7.19E-04,  avg # of iterations =  1.1

     total cpu time spent up to now is        6.8 secs

     total energy              =     -93.45021201 Ry
     Harris-Foulkes estimate   =     -93.46374890 Ry
     estimated scf accuracy    <       0.05677021 Ry

     iteration #  2     ecut=   100.00 Ry     beta=0.70
     Davidson diagonalization with overlap
     ethr =  7.10E-04,  avg # of iterations =  1.0

     total cpu time spent up to now is        8.8 secs

     total energy              =     -93.45224679 Ry
     Harris-Foulkes estimate   =     -93.45238610 Ry
     estimated scf accuracy    <       0.00250127 Ry

     iteration #  3     ecut=   100.00 Ry     beta=0.70
     Davidson diagonalization with overlap
     ethr =  3.13E-05,  avg # of iterations =  1.9

     total cpu time spent up to now is       11.0 secs

     total energy              =     -93.45250687 Ry
     Harris-Foulkes estimate   =     -93.45252213 Ry
     estimated scf accuracy    <       0.00005090 Ry

     iteration #  4     ecut=   100.00 Ry     beta=0.70
     Davidson diagonalization with overlap
     ethr =  6.36E-07,  avg # of iterations =  3.2

     total cpu time spent up to now is       13.9 secs

     total energy              =     -93.45253634 Ry
     Harris-Foulkes estimate   =     -93.45253679 Ry
     estimated scf accuracy    <       0.00000134 Ry

     iteration #  5     ecut=   100.00 Ry     beta=0.70
     Davidson diagonalization with overlap
     ethr =  1.68E-08,  avg # of iterations =  2.9

     total cpu time spent up to now is       16.6 secs

     End of self-consistent calculation

          k = 0.0000 0.0000 0.0000 (  4645 PWs)   bands (ev):

    -5.7894   6.1035   6.1035   6.1035

          k =-0.1667 0.1667-0.1667 (  4630 PWs)   bands (ev):

    -5.4313   3.7288   5.6572   5.6572

          k =-0.3333 0.3333-0.3333 (  4609 PWs)   bands (ev):

    -4.4253   0.7985   5.1105   5.1105

          k = 0.5000-0.5000 0.5000 (  4584 PWs)   bands (ev):

    -3.4833  -0.8191   4.9132   4.9132

          k = 0.0000 0.3333 0.0000 (  4613 PWs)   bands (ev):

    -5.3094   4.0540   4.9233   4.9233

          k =-0.1667 0.5000-0.1667 (  4632 PWs)   bands (ev):

    -4.5014   1.6808   4.1246   4.3743

          k = 0.6667-0.3333 0.6667 (  4612 PWs)   bands (ev):

    -3.3237  -0.4646   3.3468   4.3430

          k = 0.5000-0.1667 0.5000 (  4609 PWs)   bands (ev):

    -3.7037   0.1275   3.0814   4.8167

          k = 0.3333 0.0000 0.3333 (  4631 PWs)   bands (ev):

    -4.8483   2.3932   3.7168   5.5417

          k = 0.0000 0.6667 0.0000 (  4616 PWs)   bands (ev):

    -3.9015   1.0996   3.7088   3.7088

          k = 0.8333-0.1667 0.8333 (  4598 PWs)   bands (ev):

    -2.7492  -0.4413   2.5105   3.5730

          k = 0.6667-0.0000 0.6667 (  4598 PWs)   bands (ev):

    -2.5577  -0.6419   1.7394   4.0109

          k = 0.0000-1.0000 0.0000 (  4568 PWs)   bands (ev):

    -1.6816  -1.6816   3.2775   3.2775

          k = 0.6667-0.3333 1.0000 (  4620 PWs)   bands (ev):

    -3.5209   0.4743   2.5713   3.8325

          k = 0.5000-0.1667 0.8333 (  4608 PWs)   bands (ev):

    -2.5481  -0.7114   2.1339   3.3722

          k =-0.3333-1.0000 0.0000 (  4606 PWs)   bands (ev):

    -1.5650  -1.5650   2.4988   2.4988

     highest occupied level (ev):     6.1035

!    total energy              =     -93.45253690 Ry
     Harris-Foulkes estimate   =     -93.45253694 Ry
     estimated scf accuracy    <       0.00000004 Ry

     total all-electron energy =     -1160.144273 Ry

     The total energy is the sum of the following terms:

     one-electron contribution =       5.64840628 Ry
     hartree contribution      =       1.11178939 Ry
     xc contribution           =     -12.24450545 Ry
     ewald contribution        =     -16.73568324 Ry
     one-center paw contrib.   =     -71.23254387 Ry

     convergence has been achieved in   5 iterations

     Forces acting on atoms (Ry/au):

     atom    1 type  1   force =     0.00000000    0.00000000    0.00000000
     atom    2 type  1   force =     0.00000000    0.00000000    0.00000000

     Total force =     0.000000     Total SCF correction =     0.000000


     entering subroutine stress ...

          total   stress  (Ry/bohr**3)                   (kbar)     P=    8.50
   0.00005780  -0.00000000  -0.00000000          8.50     -0.00     -0.00
  -0.00000000   0.00005780   0.00000000         -0.00      8.50      0.00
  -0.00000000   0.00000000   0.00005780         -0.00      0.00      8.50


     Writing output data file pwscf.save
 
     init_run     :      2.26s CPU      2.28s WALL (       1 calls)
     electrons    :     13.96s CPU     14.03s WALL (       1 calls)
     forces       :      0.36s CPU      0.36s WALL (       1 calls)
     stress       :      1.10s CPU      1.10s WALL (       1 calls)

     Called by init_run:
     wfcinit      :      1.14s CPU      1.14s WALL (       1 calls)
     potinit      :      0.32s CPU      0.32s WALL (       1 calls)

     Called by electrons:
     c_bands      :      9.63s CPU      9.67s WALL (       6 calls)
     sum_band     :      2.47s CPU      2.48s WALL (       6 calls)
     v_of_rho     :      0.80s CPU      0.81s WALL (       6 calls)
     newd         :      0.38s CPU      0.38s WALL (       6 calls)
     mix_rho      :      0.07s CPU      0.07s WALL (       6 calls)

     Called by c_bands:
     init_us_2    :      0.43s CPU      0.42s WALL (     240 calls)
     cegterg      :      8.96s CPU      9.00s WALL (      96 calls)

     Called by *egterg:
     h_psi        :      9.27s CPU      9.31s WALL (     306 calls)
     s_psi        :      0.17s CPU      0.17s WALL (     306 calls)
     g_psi        :      0.08s CPU      0.07s WALL (     194 calls)
     cdiaghg      :      0.03s CPU      0.03s WALL (     274 calls)

     Called by h_psi:
     add_vuspsi   :      0.17s CPU      0.17s WALL (     306 calls)

     General routines
     calbec       :      0.25s CPU      0.27s WALL (     434 calls)
     fft          :      0.63s CPU      0.63s WALL (     105 calls)
     fftw         :      9.45s CPU      9.51s WALL (    2688 calls)
     davcio       :      0.00s CPU      0.00s WALL (      16 calls)
 
     Parallel routines
     fft_scatter  :      1.24s CPU      1.25s WALL (    2793 calls)

     PAW routines
     PAW_pot      :      0.95s CPU      0.95s WALL (       6 calls)
     PAW_symme    :      0.00s CPU      0.00s WALL (      12 calls)
 
     PWSCF        :    18.11s CPU        18.27s WALL

 
   This run was terminated on:  20: 1: 2  28Apr2015            

=------------------------------------------------------------------------------=
   JOB DONE.
=------------------------------------------------------------------------------=
