
     Program PWSCF v.5.1 starts on 28Apr2015 at 20: 8: 8 

     This program is part of the open-source Quantum ESPRESSO suite
     for quantum simulation of materials; please cite
         "P. Giannozzi et al., J. Phys.:Condens. Matter 21 395502 (2009);
          URL http://www.quantum-espresso.org", 
     in publications or presentations arising from this work. More details at
     http://www.quantum-espresso.org/quote

     Parallel version (MPI), running on     1 processors
     Waiting for input...
     Reading input from standard input
Warning: card &IONS ignored
Warning: card / ignored
Warning: card &CELL ignored
Warning: card / ignored

     Current dimensions of program PWSCF are:
     Max number of different atomic species (ntypx) = 10
     Max number of k-points (npk) =  40000
     Max angular momentum in pseudopotentials (lmaxx) =  3
               file Si.pbe-n-kjpaw_psl.0.1.UPF: wavefunction(s)  3S renormalized

     Subspace diagonalization in iterative solution of the eigenvalue problem:
     a serial algorithm will be used

 
     G-vector sticks info
     --------------------
     sticks:   dense  smooth     PW     G-vecs:    dense   smooth      PW
     Sum         295     295     97                 3287     3287     645
 


     bravais-lattice index     =            2
     lattice parameter (alat)  =      10.3000  a.u.
     unit-cell volume          =     273.1818 (a.u.)^3
     number of atoms/cell      =            2
     number of atomic types    =            1
     number of electrons       =         8.00
     number of Kohn-Sham states=            4
     kinetic-energy cutoff     =      20.0000  Ry
     charge density cutoff     =      80.0000  Ry
     convergence threshold     =      1.0E-06
     mixing beta               =       0.7000
     number of iterations used =            8  plain     mixing
     Exchange-correlation      =  SLA  PW   PBX  PBC ( 1  4  3  4 0)

     celldm(1)=  10.300000  celldm(2)=   0.000000  celldm(3)=   0.000000
     celldm(4)=   0.000000  celldm(5)=   0.000000  celldm(6)=   0.000000

     crystal axes: (cart. coord. in units of alat)
               a(1) = (  -0.500000   0.000000   0.500000 )  
               a(2) = (   0.000000   0.500000   0.500000 )  
               a(3) = (  -0.500000   0.500000   0.000000 )  

     reciprocal axes: (cart. coord. in units 2 pi/alat)
               b(1) = ( -1.000000 -1.000000  1.000000 )  
               b(2) = (  1.000000  1.000000  1.000000 )  
               b(3) = ( -1.000000  1.000000 -1.000000 )  


     PseudoPot. # 1 for Si read from file:
     ./Si.pbe-n-kjpaw_psl.0.1.UPF
     MD5 check sum: b9d333a40e496bef61db012f150758bf
     Pseudo is Projector augmented-wave + core cor, Zval =  4.0
     Generated using "atomic" code by A. Dal Corso  v.5.0.2 svn rev. 9415
     Shape of augmentation charge: PSQ
     Using radial grid of 1141 points,  4 beta functions with: 
                l(1) =   0
                l(2) =   0
                l(3) =   1
                l(4) =   1
     Q(r) pseudized with 0 coefficients 


     atomic species   valence    mass     pseudopotential
        Si             4.00    28.05500     Si( 1.00)

     48 Sym. Ops., with inversion, found (24 have fractional translation)



   Cartesian axes

     site n.     atom                  positions (alat units)
         1           Si  tau(   1) = (   0.0000000   0.0000000   0.0000000  )
         2           Si  tau(   2) = (  -0.2500000   0.2500000   0.2500000  )

     number of k points=    47
                       cart. coord. in units 2pi/alat
        k(    1) = (   0.0000000   0.0000000   0.0000000), wk =   0.0020000
        k(    2) = (  -0.1000000   0.1000000  -0.1000000), wk =   0.0160000
        k(    3) = (  -0.2000000   0.2000000  -0.2000000), wk =   0.0160000
        k(    4) = (  -0.3000000   0.3000000  -0.3000000), wk =   0.0160000
        k(    5) = (  -0.4000000   0.4000000  -0.4000000), wk =   0.0160000
        k(    6) = (   0.5000000  -0.5000000   0.5000000), wk =   0.0080000
        k(    7) = (   0.0000000   0.2000000   0.0000000), wk =   0.0120000
        k(    8) = (  -0.1000000   0.3000000  -0.1000000), wk =   0.0480000
        k(    9) = (  -0.2000000   0.4000000  -0.2000000), wk =   0.0480000
        k(   10) = (  -0.3000000   0.5000000  -0.3000000), wk =   0.0480000
        k(   11) = (   0.6000000  -0.4000000   0.6000000), wk =   0.0480000
        k(   12) = (   0.5000000  -0.3000000   0.5000000), wk =   0.0480000
        k(   13) = (   0.4000000  -0.2000000   0.4000000), wk =   0.0480000
        k(   14) = (   0.3000000  -0.1000000   0.3000000), wk =   0.0480000
        k(   15) = (   0.2000000   0.0000000   0.2000000), wk =   0.0240000
        k(   16) = (   0.0000000   0.4000000   0.0000000), wk =   0.0120000
        k(   17) = (  -0.1000000   0.5000000  -0.1000000), wk =   0.0480000
        k(   18) = (  -0.2000000   0.6000000  -0.2000000), wk =   0.0480000
        k(   19) = (   0.7000000  -0.3000000   0.7000000), wk =   0.0480000
        k(   20) = (   0.6000000  -0.2000000   0.6000000), wk =   0.0480000
        k(   21) = (   0.5000000  -0.1000000   0.5000000), wk =   0.0480000
        k(   22) = (   0.4000000   0.0000000   0.4000000), wk =   0.0240000
        k(   23) = (   0.0000000   0.6000000   0.0000000), wk =   0.0120000
        k(   24) = (  -0.1000000   0.7000000  -0.1000000), wk =   0.0480000
        k(   25) = (   0.8000000  -0.2000000   0.8000000), wk =   0.0480000
        k(   26) = (   0.7000000  -0.1000000   0.7000000), wk =   0.0480000
        k(   27) = (   0.6000000  -0.0000000   0.6000000), wk =   0.0240000
        k(   28) = (   0.0000000   0.8000000   0.0000000), wk =   0.0120000
        k(   29) = (   0.9000000  -0.1000000   0.9000000), wk =   0.0480000
        k(   30) = (   0.8000000   0.0000000   0.8000000), wk =   0.0240000
        k(   31) = (   0.0000000  -1.0000000   0.0000000), wk =   0.0060000
        k(   32) = (  -0.2000000   0.4000000   0.0000000), wk =   0.0480000
        k(   33) = (  -0.3000000   0.5000000  -0.1000000), wk =   0.0960000
        k(   34) = (   0.6000000  -0.4000000   0.8000000), wk =   0.0960000
        k(   35) = (   0.5000000  -0.3000000   0.7000000), wk =   0.0480000
        k(   36) = (  -0.2000000   0.6000000   0.0000000), wk =   0.0480000
        k(   37) = (   0.7000000  -0.3000000   0.9000000), wk =   0.0960000
        k(   38) = (   0.6000000  -0.2000000   0.8000000), wk =   0.0960000
        k(   39) = (   0.5000000  -0.1000000   0.7000000), wk =   0.0960000
        k(   40) = (   0.4000000   0.0000000   0.6000000), wk =   0.0480000
        k(   41) = (   0.8000000  -0.2000000   1.0000000), wk =   0.0480000
        k(   42) = (   0.7000000  -0.1000000   0.9000000), wk =   0.0960000
        k(   43) = (   0.6000000   0.0000000   0.8000000), wk =   0.0480000
        k(   44) = (  -0.2000000  -1.0000000   0.0000000), wk =   0.0240000
        k(   45) = (   0.6000000  -0.2000000   1.0000000), wk =   0.0480000
        k(   46) = (   0.5000000  -0.1000000   0.9000000), wk =   0.0480000
        k(   47) = (  -0.4000000  -1.0000000   0.0000000), wk =   0.0240000

     Dense  grid:     3287 G-vectors     FFT dimensions: (  24,  24,  24)

     Largest allocated arrays     est. size (Mb)     dimensions
        Kohn-Sham Wavefunctions         0.03 Mb     (     424,    4)
        NL pseudopotentials             0.10 Mb     (     424,   16)
        Each V/rho on FFT grid          0.21 Mb     (   13824)
        Each G-vector array             0.03 Mb     (    3287)
        G-vector shells                 0.00 Mb     (      74)
     Largest temporary arrays     est. size (Mb)     dimensions
        Auxiliary wavefunctions         0.10 Mb     (     424,   16)
        Each subspace H/S matrix        0.00 Mb     (      16,   16)
        Each <psi_i|beta_j> matrix      0.00 Mb     (      16,    4)
        Arrays for rho mixing           1.69 Mb     (   13824,    8)

     Check: negative/imaginary core charge=   -0.000011    0.000000

     Initial potential from superposition of free atoms

     starting charge    7.99888, renormalised to    8.00000
     Starting wfc are    8 randomized atomic wfcs
     Checking if some PAW data can be deallocated... 

     total cpu time spent up to now is        1.1 secs

     per-process dynamical memory:     7.1 Mb

     Self-consistent Calculation

     iteration #  1     ecut=    20.00 Ry     beta=0.70
     Davidson diagonalization with overlap
     ethr =  1.00E-02,  avg # of iterations =  2.0

     Threshold (ethr) on eigenvalues was too large:
     Diagonalizing with lowered threshold

     Davidson diagonalization with overlap
     ethr =  6.98E-04,  avg # of iterations =  1.0

     total cpu time spent up to now is        2.3 secs

     total energy              =     -93.45058748 Ry
     Harris-Foulkes estimate   =     -93.46367732 Ry
     estimated scf accuracy    <       0.05563388 Ry

     iteration #  2     ecut=    20.00 Ry     beta=0.70
     Davidson diagonalization with overlap
     ethr =  6.95E-04,  avg # of iterations =  1.0

     total cpu time spent up to now is        3.0 secs

     total energy              =     -93.45257165 Ry
     Harris-Foulkes estimate   =     -93.45270551 Ry
     estimated scf accuracy    <       0.00242488 Ry

     iteration #  3     ecut=    20.00 Ry     beta=0.70
     Davidson diagonalization with overlap
     ethr =  3.03E-05,  avg # of iterations =  2.0

     total cpu time spent up to now is        3.7 secs

     total energy              =     -93.45284715 Ry
     Harris-Foulkes estimate   =     -93.45286479 Ry
     estimated scf accuracy    <       0.00005095 Ry

     iteration #  4     ecut=    20.00 Ry     beta=0.70
     Davidson diagonalization with overlap
     ethr =  6.37E-07,  avg # of iterations =  2.8

     total cpu time spent up to now is        4.5 secs

     total energy              =     -93.45287068 Ry
     Harris-Foulkes estimate   =     -93.45287161 Ry
     estimated scf accuracy    <       0.00000258 Ry

     iteration #  5     ecut=    20.00 Ry     beta=0.70
     Davidson diagonalization with overlap
     ethr =  3.23E-08,  avg # of iterations =  2.6

     total cpu time spent up to now is        5.4 secs

     End of self-consistent calculation

          k = 0.0000 0.0000 0.0000 (   411 PWs)   bands (ev):

    -5.7953   6.1074   6.1074   6.1074

          k =-0.1000 0.1000-0.1000 (   411 PWs)   bands (ev):

    -5.6655   4.9568   5.9098   5.9098

          k =-0.2000 0.2000-0.2000 (   402 PWs)   bands (ev):

    -5.2824   3.1026   5.5295   5.5295

          k =-0.3000 0.3000-0.3000 (   407 PWs)   bands (ev):

    -4.6727   1.3282   5.1950   5.1950

          k =-0.4000 0.4000-0.4000 (   413 PWs)   bands (ev):

    -3.9340  -0.1350   4.9817   4.9817

          k = 0.5000-0.5000 0.5000 (   410 PWs)   bands (ev):

    -3.4892  -0.8246   4.9099   4.9099

          k = 0.0000 0.2000 0.0000 (   411 PWs)   bands (ev):

    -5.6220   5.1548   5.5345   5.5345

          k =-0.1000 0.3000-0.1000 (   409 PWs)   bands (ev):

    -5.3221   3.6517   5.1016   5.2666

          k =-0.2000 0.4000-0.2000 (   409 PWs)   bands (ev):

    -4.7834   1.9040   4.7834   4.8347

          k =-0.3000 0.5000-0.3000 (   415 PWs)   bands (ev):

    -4.0668   0.3439   4.4244   4.6353

          k = 0.6000-0.4000 0.6000 (   413 PWs)   bands (ev):

    -3.4346  -0.6817   4.1362   4.6669

          k = 0.5000-0.3000 0.5000 (   411 PWs)   bands (ev):

    -3.5994  -0.4361   4.0100   4.8648

          k = 0.4000-0.2000 0.4000 (   409 PWs)   bands (ev):

    -4.3196   0.8334   4.0717   5.1973

          k = 0.3000-0.1000 0.3000 (   404 PWs)   bands (ev):

    -4.9889   2.4696   4.3480   5.6023

          k = 0.2000 0.0000 0.2000 (   411 PWs)   bands (ev):

    -5.4508   4.0694   4.9559   5.9289

          k = 0.0000 0.4000 0.0000 (   415 PWs)   bands (ev):

    -5.1058   3.4684   4.6282   4.6282

          k =-0.1000 0.5000-0.1000 (   411 PWs)   bands (ev):

    -4.6441   2.2323   4.1227   4.2819

          k =-0.2000 0.6000-0.2000 (   417 PWs)   bands (ev):

    -3.9753   0.8093   3.4976   4.1222

          k = 0.7000-0.3000 0.7000 (   412 PWs)   bands (ev):

    -3.2529  -0.3618   2.9913   4.1653

          k = 0.6000-0.2000 0.6000 (   410 PWs)   bands (ev):

    -3.1024  -0.5671   2.6962   4.4015

          k = 0.5000-0.1000 0.5000 (   412 PWs)   bands (ev):

    -3.7479   0.4079   2.6787   4.7955

          k = 0.4000 0.0000 0.4000 (   409 PWs)   bands (ev):

    -4.4586   1.6343   3.1314   5.2628

          k = 0.0000 0.6000 0.0000 (   423 PWs)   bands (ev):

    -4.2594   1.6860   3.8914   3.8914

          k =-0.1000 0.7000-0.1000 (   419 PWs)   bands (ev):

    -3.6521   0.6879   3.2724   3.6876

          k = 0.8000-0.2000 0.8000 (   416 PWs)   bands (ev):

    -2.9098  -0.3084   2.4531   3.6936

          k = 0.7000-0.1000 0.7000 (   410 PWs)   bands (ev):

    -2.4969  -0.7776   1.9057   3.9075

          k = 0.6000-0.0000 0.6000 (   407 PWs)   bands (ev):

    -3.0291  -0.1937   1.8806   4.3007

          k = 0.0000 0.8000 0.0000 (   424 PWs)   bands (ev):

    -3.1067  -0.0630   3.4290   3.4290

          k = 0.9000-0.1000 0.9000 (   419 PWs)   bands (ev):

    -2.3847  -0.8965   2.8521   3.3806

          k = 0.8000 0.0000 0.8000 (   411 PWs)   bands (ev):

    -1.9160  -1.3117   2.0805   3.5468

          k = 0.0000-1.0000 0.0000 (   412 PWs)   bands (ev):

    -1.6875  -1.6875   3.2726   3.2726

          k =-0.2000 0.4000 0.0000 (   408 PWs)   bands (ev):

    -4.9420   2.7286   4.0423   5.1381

          k =-0.3000 0.5000-0.1000 (   412 PWs)   bands (ev):

    -4.3362   1.3321   3.4550   4.7658

          k = 0.6000-0.4000 0.8000 (   413 PWs)   bands (ev):

    -3.5975  -0.0168   3.2220   4.4193

          k = 0.5000-0.3000 0.7000 (   416 PWs)   bands (ev):

    -3.1451  -0.6857   3.1612   4.2829

          k =-0.2000 0.6000 0.0000 (   413 PWs)   bands (ev):

    -4.1112   1.3343   3.3210   4.0350

          k = 0.7000-0.3000 0.9000 (   412 PWs)   bands (ev):

    -3.3982   0.2427   2.7071   3.7106

          k = 0.6000-0.2000 0.8000 (   413 PWs)   bands (ev):

    -2.7565  -0.6090   2.3015   3.6558

          k = 0.5000-0.1000 0.7000 (   413 PWs)   bands (ev):

    -2.9554  -0.3530   2.1538   3.8930

          k = 0.4000 0.0000 0.6000 (   416 PWs)   bands (ev):

    -3.6826   0.5865   2.4534   4.3282

          k = 0.8000-0.2000 1.0000 (   420 PWs)   bands (ev):

    -2.9900  -0.1484   2.9132   3.2374

          k = 0.7000-0.1000 0.9000 (   414 PWs)   bands (ev):

    -2.2599  -0.9163   2.2217   3.1475

          k = 0.6000 0.0000 0.8000 (   410 PWs)   bands (ev):

    -2.2673  -0.8882   1.8111   3.4145

          k =-0.2000-1.0000 0.0000 (   418 PWs)   bands (ev):

    -1.6358  -1.6358   2.8711   2.8711

          k = 0.6000-0.2000 1.0000 (   408 PWs)   bands (ev):

    -2.6736  -0.4435   2.1630   3.1410

          k = 0.5000-0.1000 0.9000 (   408 PWs)   bands (ev):

    -2.1687  -0.9478   2.0075   2.8926

          k =-0.4000-1.0000 0.0000 (   408 PWs)   bands (ev):

    -1.5448  -1.5448   2.3666   2.3666

     highest occupied level (ev):     6.1074

!    total energy              =     -93.45287143 Ry
     Harris-Foulkes estimate   =     -93.45287149 Ry
     estimated scf accuracy    <       0.00000008 Ry

     total all-electron energy =     -1160.144607 Ry

     The total energy is the sum of the following terms:

     one-electron contribution =       5.65080499 Ry
     hartree contribution      =       1.10677551 Ry
     xc contribution           =     -12.24153866 Ry
     ewald contribution        =     -16.73568327 Ry
     one-center paw contrib.   =     -71.23323000 Ry

     convergence has been achieved in   5 iterations

     Forces acting on atoms (Ry/au):

     atom    1 type  1   force =    -0.00000000   -0.00000000    0.00000000
     atom    2 type  1   force =    -0.00000000   -0.00000000   -0.00000000

     Total force =     0.000000     Total SCF correction =     0.000000


     entering subroutine stress ...

          total   stress  (Ry/bohr**3)                   (kbar)     P=    8.20
   0.00005577   0.00000000   0.00000000          8.20      0.00      0.00
   0.00000000   0.00005577   0.00000000          0.00      8.20      0.00
  -0.00000000   0.00000000   0.00005577         -0.00      0.00      8.20


     Writing output data file pwscf.save
 
     init_run     :      0.83s CPU      0.84s WALL (       1 calls)
     electrons    :      4.16s CPU      4.22s WALL (       1 calls)
     forces       :      0.05s CPU      0.05s WALL (       1 calls)
     stress       :      0.16s CPU      0.16s WALL (       1 calls)

     Called by init_run:
     wfcinit      :      0.32s CPU      0.33s WALL (       1 calls)
     potinit      :      0.18s CPU      0.18s WALL (       1 calls)

     Called by electrons:
     c_bands      :      2.71s CPU      2.76s WALL (       6 calls)
     sum_band     :      0.55s CPU      0.56s WALL (       6 calls)
     v_of_rho     :      0.08s CPU      0.08s WALL (       6 calls)
     newd         :      0.03s CPU      0.03s WALL (       6 calls)
     mix_rho      :      0.01s CPU      0.01s WALL (       6 calls)

     Called by c_bands:
     init_us_2    :      0.10s CPU      0.10s WALL (     705 calls)
     cegterg      :      2.54s CPU      2.58s WALL (     282 calls)

     Called by *egterg:
     h_psi        :      2.61s CPU      2.65s WALL (     864 calls)
     s_psi        :      0.05s CPU      0.04s WALL (     864 calls)
     g_psi        :      0.02s CPU      0.02s WALL (     535 calls)
     cdiaghg      :      0.07s CPU      0.06s WALL (     770 calls)

     Called by h_psi:
     add_vuspsi   :      0.04s CPU      0.04s WALL (     864 calls)

     General routines
     calbec       :      0.08s CPU      0.07s WALL (    1240 calls)
     fft          :      0.05s CPU      0.05s WALL (     105 calls)
     fftw         :      2.73s CPU      2.75s WALL (    7798 calls)
     davcio       :      0.00s CPU      0.00s WALL (      47 calls)
 
     Parallel routines
     fft_scatter  :      0.14s CPU      0.15s WALL (    7903 calls)

     PAW routines
     PAW_pot      :      0.95s CPU      0.95s WALL (       6 calls)
     PAW_symme    :      0.00s CPU      0.00s WALL (      12 calls)
 
     PWSCF        :     5.68s CPU         5.85s WALL

 
   This run was terminated on:  20: 8:13  28Apr2015            

=------------------------------------------------------------------------------=
   JOB DONE.
=------------------------------------------------------------------------------=
