
     Program PWSCF v.5.1 starts on 28Apr2015 at 19:59:31 

     This program is part of the open-source Quantum ESPRESSO suite
     for quantum simulation of materials; please cite
         "P. Giannozzi et al., J. Phys.:Condens. Matter 21 395502 (2009);
          URL http://www.quantum-espresso.org", 
     in publications or presentations arising from this work. More details at
     http://www.quantum-espresso.org/quote

     Parallel version (MPI), running on     1 processors
     Waiting for input...
     Reading input from standard input
Warning: card &IONS ignored
Warning: card / ignored
Warning: card &CELL ignored
Warning: card / ignored

     Current dimensions of program PWSCF are:
     Max number of different atomic species (ntypx) = 10
     Max number of k-points (npk) =  40000
     Max angular momentum in pseudopotentials (lmaxx) =  3
               file Si.pbe-n-kjpaw_psl.0.1.UPF: wavefunction(s)  3S renormalized

     Subspace diagonalization in iterative solution of the eigenvalue problem:
     a serial algorithm will be used

 
     G-vector sticks info
     --------------------
     sticks:   dense  smooth     PW     G-vecs:    dense   smooth      PW
     Sum         433     433    151                 5985     5985    1139
 


     bravais-lattice index     =            2
     lattice parameter (alat)  =      10.3000  a.u.
     unit-cell volume          =     273.1818 (a.u.)^3
     number of atoms/cell      =            2
     number of atomic types    =            1
     number of electrons       =         8.00
     number of Kohn-Sham states=            4
     kinetic-energy cutoff     =      30.0000  Ry
     charge density cutoff     =     120.0000  Ry
     convergence threshold     =      1.0E-06
     mixing beta               =       0.7000
     number of iterations used =            8  plain     mixing
     Exchange-correlation      =  SLA  PW   PBX  PBC ( 1  4  3  4 0)

     celldm(1)=  10.300000  celldm(2)=   0.000000  celldm(3)=   0.000000
     celldm(4)=   0.000000  celldm(5)=   0.000000  celldm(6)=   0.000000

     crystal axes: (cart. coord. in units of alat)
               a(1) = (  -0.500000   0.000000   0.500000 )  
               a(2) = (   0.000000   0.500000   0.500000 )  
               a(3) = (  -0.500000   0.500000   0.000000 )  

     reciprocal axes: (cart. coord. in units 2 pi/alat)
               b(1) = ( -1.000000 -1.000000  1.000000 )  
               b(2) = (  1.000000  1.000000  1.000000 )  
               b(3) = ( -1.000000  1.000000 -1.000000 )  


     PseudoPot. # 1 for Si read from file:
     ./Si.pbe-n-kjpaw_psl.0.1.UPF
     MD5 check sum: b9d333a40e496bef61db012f150758bf
     Pseudo is Projector augmented-wave + core cor, Zval =  4.0
     Generated using "atomic" code by A. Dal Corso  v.5.0.2 svn rev. 9415
     Shape of augmentation charge: PSQ
     Using radial grid of 1141 points,  4 beta functions with: 
                l(1) =   0
                l(2) =   0
                l(3) =   1
                l(4) =   1
     Q(r) pseudized with 0 coefficients 


     atomic species   valence    mass     pseudopotential
        Si             4.00    28.05500     Si( 1.00)

     24 Sym. Ops. (no inversion) found
          (note: 24 additional sym.ops. were found but ignored
           their fractional translations are incommensurate with FFT grid)


   Cartesian axes

     site n.     atom                  positions (alat units)
         1           Si  tau(   1) = (   0.0000000   0.0000000   0.0000000  )
         2           Si  tau(   2) = (  -0.2500000   0.2500000   0.2500000  )

     number of k points=    16
                       cart. coord. in units 2pi/alat
        k(    1) = (   0.0000000   0.0000000   0.0000000), wk =   0.0092593
        k(    2) = (  -0.1666667   0.1666667  -0.1666667), wk =   0.0740741
        k(    3) = (  -0.3333333   0.3333333  -0.3333333), wk =   0.0740741
        k(    4) = (   0.5000000  -0.5000000   0.5000000), wk =   0.0370370
        k(    5) = (   0.0000000   0.3333333   0.0000000), wk =   0.0555556
        k(    6) = (  -0.1666667   0.5000000  -0.1666667), wk =   0.2222222
        k(    7) = (   0.6666667  -0.3333333   0.6666667), wk =   0.2222222
        k(    8) = (   0.5000000  -0.1666667   0.5000000), wk =   0.2222222
        k(    9) = (   0.3333333   0.0000000   0.3333333), wk =   0.1111111
        k(   10) = (   0.0000000   0.6666667   0.0000000), wk =   0.0555556
        k(   11) = (   0.8333333  -0.1666667   0.8333333), wk =   0.2222222
        k(   12) = (   0.6666667  -0.0000000   0.6666667), wk =   0.1111111
        k(   13) = (   0.0000000  -1.0000000   0.0000000), wk =   0.0277778
        k(   14) = (   0.6666667  -0.3333333   1.0000000), wk =   0.2222222
        k(   15) = (   0.5000000  -0.1666667   0.8333333), wk =   0.2222222
        k(   16) = (  -0.3333333  -1.0000000   0.0000000), wk =   0.1111111

     Dense  grid:     5985 G-vectors     FFT dimensions: (  25,  25,  25)

     Largest allocated arrays     est. size (Mb)     dimensions
        Kohn-Sham Wavefunctions         0.05 Mb     (     769,    4)
        NL pseudopotentials             0.19 Mb     (     769,   16)
        Each V/rho on FFT grid          0.24 Mb     (   15625)
        Each G-vector array             0.05 Mb     (    5985)
        G-vector shells                 0.00 Mb     (     109)
     Largest temporary arrays     est. size (Mb)     dimensions
        Auxiliary wavefunctions         0.19 Mb     (     769,   16)
        Each subspace H/S matrix        0.00 Mb     (      16,   16)
        Each <psi_i|beta_j> matrix      0.00 Mb     (      16,    4)
        Arrays for rho mixing           1.91 Mb     (   15625,    8)

     Check: negative/imaginary core charge=   -0.000004    0.000000

     Initial potential from superposition of free atoms

     starting charge    7.99888, renormalised to    8.00000
     Starting wfc are    8 randomized atomic wfcs
     Checking if some PAW data can be deallocated... 

     total cpu time spent up to now is        1.1 secs

     per-process dynamical memory:     8.1 Mb

     Self-consistent Calculation

     iteration #  1     ecut=    30.00 Ry     beta=0.70
     Davidson diagonalization with overlap
     ethr =  1.00E-02,  avg # of iterations =  2.0

     Threshold (ethr) on eigenvalues was too large:
     Diagonalizing with lowered threshold

     Davidson diagonalization with overlap
     ethr =  7.17E-04,  avg # of iterations =  1.1

     total cpu time spent up to now is        1.8 secs

     total energy              =     -93.45001535 Ry
     Harris-Foulkes estimate   =     -93.46355931 Ry
     estimated scf accuracy    <       0.05687184 Ry

     iteration #  2     ecut=    30.00 Ry     beta=0.70
     Davidson diagonalization with overlap
     ethr =  7.11E-04,  avg # of iterations =  1.0

     total cpu time spent up to now is        2.3 secs

     total energy              =     -93.45206437 Ry
     Harris-Foulkes estimate   =     -93.45220122 Ry
     estimated scf accuracy    <       0.00248592 Ry

     iteration #  3     ecut=    30.00 Ry     beta=0.70
     Davidson diagonalization with overlap
     ethr =  3.11E-05,  avg # of iterations =  1.9

     total cpu time spent up to now is        2.7 secs

     total energy              =     -93.45232573 Ry
     Harris-Foulkes estimate   =     -93.45234092 Ry
     estimated scf accuracy    <       0.00005064 Ry

     iteration #  4     ecut=    30.00 Ry     beta=0.70
     Davidson diagonalization with overlap
     ethr =  6.33E-07,  avg # of iterations =  3.1

     total cpu time spent up to now is        3.3 secs

     total energy              =     -93.45235290 Ry
     Harris-Foulkes estimate   =     -93.45235344 Ry
     estimated scf accuracy    <       0.00000158 Ry

     iteration #  5     ecut=    30.00 Ry     beta=0.70
     Davidson diagonalization with overlap
     ethr =  1.97E-08,  avg # of iterations =  3.2

     total cpu time spent up to now is        3.8 secs

     End of self-consistent calculation

          k = 0.0000 0.0000 0.0000 (   749 PWs)   bands (ev):

    -5.7888   6.1046   6.1046   6.1046

          k =-0.1667 0.1667-0.1667 (   761 PWs)   bands (ev):

    -5.4307   3.7298   5.6583   5.6583

          k =-0.3333 0.3333-0.3333 (   769 PWs)   bands (ev):

    -4.4247   0.7992   5.1115   5.1115

          k = 0.5000-0.5000 0.5000 (   754 PWs)   bands (ev):

    -3.4826  -0.8186   4.9141   4.9141

          k = 0.0000 0.3333 0.0000 (   769 PWs)   bands (ev):

    -5.3088   4.0550   4.9242   4.9242

          k =-0.1667 0.5000-0.1667 (   761 PWs)   bands (ev):

    -4.5008   1.6816   4.1255   4.3751

          k = 0.6667-0.3333 0.6667 (   752 PWs)   bands (ev):

    -3.3230  -0.4639   3.3477   4.3439

          k = 0.5000-0.1667 0.5000 (   767 PWs)   bands (ev):

    -3.7030   0.1282   3.0822   4.8176

          k = 0.3333 0.0000 0.3333 (   767 PWs)   bands (ev):

    -4.8477   2.3941   3.7176   5.5427

          k = 0.0000 0.6667 0.0000 (   769 PWs)   bands (ev):

    -3.9009   1.1004   3.7096   3.7096

          k = 0.8333-0.1667 0.8333 (   755 PWs)   bands (ev):

    -2.7485  -0.4406   2.5112   3.5738

          k = 0.6667-0.0000 0.6667 (   740 PWs)   bands (ev):

    -2.5570  -0.6411   1.7400   4.0117

          k = 0.0000-1.0000 0.0000 (   740 PWs)   bands (ev):

    -1.6809  -1.6808   3.2782   3.2782

          k = 0.6667-0.3333 1.0000 (   763 PWs)   bands (ev):

    -3.5202   0.4751   2.5720   3.8333

          k = 0.5000-0.1667 0.8333 (   748 PWs)   bands (ev):

    -2.5474  -0.7107   2.1346   3.3729

          k =-0.3333-1.0000 0.0000 (   750 PWs)   bands (ev):

    -1.5644  -1.5642   2.4994   2.4995

     highest occupied level (ev):     6.1046

!    total energy              =     -93.45235357 Ry
     Harris-Foulkes estimate   =     -93.45235363 Ry
     estimated scf accuracy    <       0.00000006 Ry

     total all-electron energy =     -1160.144090 Ry

     The total energy is the sum of the following terms:

     one-electron contribution =       5.64878870 Ry
     hartree contribution      =       1.11165341 Ry
     xc contribution           =     -12.24438999 Ry
     ewald contribution        =     -16.73568329 Ry
     one-center paw contrib.   =     -71.23272241 Ry

     convergence has been achieved in   5 iterations

     Forces acting on atoms (Ry/au):

     atom    1 type  1   force =     0.00000000   -0.00000000    0.00000000
     atom    2 type  1   force =     0.00000000    0.00000000   -0.00000000

     Total force =     0.000000     Total SCF correction =     0.000000


     entering subroutine stress ...

          total   stress  (Ry/bohr**3)                   (kbar)     P=    8.31
   0.00005646  -0.00000000   0.00000000          8.31     -0.00      0.00
  -0.00000000   0.00005646  -0.00000000         -0.00      8.31     -0.00
   0.00000000   0.00000000   0.00005646          0.00      0.00      8.31


     Writing output data file pwscf.save
 
     init_run     :      0.76s CPU      0.77s WALL (       1 calls)
     electrons    :      2.74s CPU      2.77s WALL (       1 calls)
     forces       :      0.05s CPU      0.05s WALL (       1 calls)
     stress       :      0.17s CPU      0.17s WALL (       1 calls)

     Called by init_run:
     wfcinit      :      0.18s CPU      0.18s WALL (       1 calls)
     potinit      :      0.18s CPU      0.18s WALL (       1 calls)

     Called by electrons:
     c_bands      :      1.46s CPU      1.49s WALL (       6 calls)
     sum_band     :      0.34s CPU      0.34s WALL (       6 calls)
     v_of_rho     :      0.11s CPU      0.11s WALL (       6 calls)
     newd         :      0.05s CPU      0.05s WALL (       6 calls)
     mix_rho      :      0.01s CPU      0.01s WALL (       6 calls)

     Called by c_bands:
     init_us_2    :      0.06s CPU      0.06s WALL (     240 calls)
     cegterg      :      1.36s CPU      1.38s WALL (      96 calls)

     Called by *egterg:
     h_psi        :      1.39s CPU      1.41s WALL (     307 calls)
     s_psi        :      0.03s CPU      0.03s WALL (     307 calls)
     g_psi        :      0.01s CPU      0.01s WALL (     195 calls)
     cdiaghg      :      0.02s CPU      0.02s WALL (     275 calls)

     Called by h_psi:
     add_vuspsi   :      0.03s CPU      0.03s WALL (     307 calls)

     General routines
     calbec       :      0.04s CPU      0.04s WALL (     435 calls)
     fft          :      0.08s CPU      0.09s WALL (     105 calls)
     fftw         :      1.46s CPU      1.48s WALL (    2688 calls)
     davcio       :      0.00s CPU      0.00s WALL (      16 calls)
 
     Parallel routines
     fft_scatter  :      0.07s CPU      0.07s WALL (    2793 calls)

     PAW routines
     PAW_pot      :      0.94s CPU      0.95s WALL (       6 calls)
     PAW_symme    :      0.00s CPU      0.00s WALL (      12 calls)
 
     PWSCF        :     4.11s CPU         4.20s WALL

 
   This run was terminated on:  19:59:35  28Apr2015            

=------------------------------------------------------------------------------=
   JOB DONE.
=------------------------------------------------------------------------------=
