
     Program PWSCF v.5.1 starts on 28Apr2015 at 19:57:56 

     This program is part of the open-source Quantum ESPRESSO suite
     for quantum simulation of materials; please cite
         "P. Giannozzi et al., J. Phys.:Condens. Matter 21 395502 (2009);
          URL http://www.quantum-espresso.org", 
     in publications or presentations arising from this work. More details at
     http://www.quantum-espresso.org/quote

     Parallel version (MPI), running on     1 processors
     Waiting for input...
     Reading input from standard input
Warning: card &IONS ignored
Warning: card / ignored
Warning: card &CELL ignored
Warning: card / ignored

     Current dimensions of program PWSCF are:
     Max number of different atomic species (ntypx) = 10
     Max number of k-points (npk) =  40000
     Max angular momentum in pseudopotentials (lmaxx) =  3
               file Si.pbe-n-kjpaw_psl.0.1.UPF: wavefunction(s)  3S renormalized

     Subspace diagonalization in iterative solution of the eigenvalue problem:
     a serial algorithm will be used

 
     G-vector sticks info
     --------------------
     sticks:   dense  smooth     PW     G-vecs:    dense   smooth      PW
     Sum         433     433    139                 5985     5985    1067
 


     bravais-lattice index     =            2
     lattice parameter (alat)  =      10.3000  a.u.
     unit-cell volume          =     273.1818 (a.u.)^3
     number of atoms/cell      =            2
     number of atomic types    =            1
     number of electrons       =         8.00
     number of Kohn-Sham states=            4
     kinetic-energy cutoff     =      30.0000  Ry
     charge density cutoff     =     120.0000  Ry
     convergence threshold     =      1.0E-06
     mixing beta               =       0.7000
     number of iterations used =            8  plain     mixing
     Exchange-correlation      =  SLA  PW   PBX  PBC ( 1  4  3  4 0)

     celldm(1)=  10.300000  celldm(2)=   0.000000  celldm(3)=   0.000000
     celldm(4)=   0.000000  celldm(5)=   0.000000  celldm(6)=   0.000000

     crystal axes: (cart. coord. in units of alat)
               a(1) = (  -0.500000   0.000000   0.500000 )  
               a(2) = (   0.000000   0.500000   0.500000 )  
               a(3) = (  -0.500000   0.500000   0.000000 )  

     reciprocal axes: (cart. coord. in units 2 pi/alat)
               b(1) = ( -1.000000 -1.000000  1.000000 )  
               b(2) = (  1.000000  1.000000  1.000000 )  
               b(3) = ( -1.000000  1.000000 -1.000000 )  


     PseudoPot. # 1 for Si read from file:
     ./Si.pbe-n-kjpaw_psl.0.1.UPF
     MD5 check sum: b9d333a40e496bef61db012f150758bf
     Pseudo is Projector augmented-wave + core cor, Zval =  4.0
     Generated using "atomic" code by A. Dal Corso  v.5.0.2 svn rev. 9415
     Shape of augmentation charge: PSQ
     Using radial grid of 1141 points,  4 beta functions with: 
                l(1) =   0
                l(2) =   0
                l(3) =   1
                l(4) =   1
     Q(r) pseudized with 0 coefficients 


     atomic species   valence    mass     pseudopotential
        Si             4.00    28.05500     Si( 1.00)

     24 Sym. Ops. (no inversion) found
          (note: 24 additional sym.ops. were found but ignored
           their fractional translations are incommensurate with FFT grid)


   Cartesian axes

     site n.     atom                  positions (alat units)
         1           Si  tau(   1) = (   0.0000000   0.0000000   0.0000000  )
         2           Si  tau(   2) = (  -0.2500000   0.2500000   0.2500000  )

     number of k points=    10
                       cart. coord. in units 2pi/alat
        k(    1) = (   0.0000000   0.0000000   0.0000000), wk =   0.0160000
        k(    2) = (  -0.2000000   0.2000000  -0.2000000), wk =   0.1280000
        k(    3) = (  -0.4000000   0.4000000  -0.4000000), wk =   0.1280000
        k(    4) = (   0.0000000   0.4000000   0.0000000), wk =   0.0960000
        k(    5) = (  -0.2000000   0.6000000  -0.2000000), wk =   0.3840000
        k(    6) = (   0.6000000  -0.2000000   0.6000000), wk =   0.3840000
        k(    7) = (   0.4000000   0.0000000   0.4000000), wk =   0.1920000
        k(    8) = (   0.0000000   0.8000000   0.0000000), wk =   0.0960000
        k(    9) = (   0.8000000   0.0000000   0.8000000), wk =   0.1920000
        k(   10) = (   0.6000000  -0.2000000   1.0000000), wk =   0.3840000

     Dense  grid:     5985 G-vectors     FFT dimensions: (  25,  25,  25)

     Largest allocated arrays     est. size (Mb)     dimensions
        Kohn-Sham Wavefunctions         0.05 Mb     (     769,    4)
        NL pseudopotentials             0.19 Mb     (     769,   16)
        Each V/rho on FFT grid          0.24 Mb     (   15625)
        Each G-vector array             0.05 Mb     (    5985)
        G-vector shells                 0.00 Mb     (     109)
     Largest temporary arrays     est. size (Mb)     dimensions
        Auxiliary wavefunctions         0.19 Mb     (     769,   16)
        Each subspace H/S matrix        0.00 Mb     (      16,   16)
        Each <psi_i|beta_j> matrix      0.00 Mb     (      16,    4)
        Arrays for rho mixing           1.91 Mb     (   15625,    8)

     Check: negative/imaginary core charge=   -0.000004    0.000000

     Initial potential from superposition of free atoms

     starting charge    7.99888, renormalised to    8.00000
     Starting wfc are    8 randomized atomic wfcs
     Checking if some PAW data can be deallocated... 

     total cpu time spent up to now is        1.0 secs

     per-process dynamical memory:     8.1 Mb

     Self-consistent Calculation

     iteration #  1     ecut=    30.00 Ry     beta=0.70
     Davidson diagonalization with overlap
     ethr =  1.00E-02,  avg # of iterations =  2.0

     Threshold (ethr) on eigenvalues was too large:
     Diagonalizing with lowered threshold

     Davidson diagonalization with overlap
     ethr =  7.34E-04,  avg # of iterations =  1.0

     total cpu time spent up to now is        1.6 secs

     total energy              =     -93.44702411 Ry
     Harris-Foulkes estimate   =     -93.46098329 Ry
     estimated scf accuracy    <       0.05834094 Ry

     iteration #  2     ecut=    30.00 Ry     beta=0.70
     Davidson diagonalization with overlap
     ethr =  7.29E-04,  avg # of iterations =  1.0

     total cpu time spent up to now is        1.9 secs

     total energy              =     -93.44912147 Ry
     Harris-Foulkes estimate   =     -93.44925775 Ry
     estimated scf accuracy    <       0.00254531 Ry

     iteration #  3     ecut=    30.00 Ry     beta=0.70
     Davidson diagonalization with overlap
     ethr =  3.18E-05,  avg # of iterations =  1.7

     total cpu time spent up to now is        2.3 secs

     total energy              =     -93.44937106 Ry
     Harris-Foulkes estimate   =     -93.44938364 Ry
     estimated scf accuracy    <       0.00005060 Ry

     iteration #  4     ecut=    30.00 Ry     beta=0.70
     Davidson diagonalization with overlap
     ethr =  6.33E-07,  avg # of iterations =  3.0

     total cpu time spent up to now is        2.7 secs

     End of self-consistent calculation

          k = 0.0000 0.0000 0.0000 (   749 PWs)   bands (ev):

    -5.7829   6.1119   6.1119   6.1119

          k =-0.2000 0.2000-0.2000 (   769 PWs)   bands (ev):

    -5.2699   3.1127   5.5369   5.5369

          k =-0.4000 0.4000-0.4000 (   763 PWs)   bands (ev):

    -3.9211  -0.1233   4.9920   4.9920

          k = 0.0000 0.4000 0.0000 (   753 PWs)   bands (ev):

    -5.0932   3.4792   4.6377   4.6377

          k =-0.2000 0.6000-0.2000 (   759 PWs)   bands (ev):

    -3.9625   0.8216   3.5073   4.1328

          k = 0.6000-0.2000 0.6000 (   753 PWs)   bands (ev):

    -3.0893  -0.5548   2.7061   4.4116

          k = 0.4000 0.0000 0.4000 (   766 PWs)   bands (ev):

    -4.4459   1.6467   3.1405   5.2715

          k = 0.0000 0.8000 0.0000 (   753 PWs)   bands (ev):

    -3.0937  -0.0498   3.4403   3.4403

          k = 0.8000 0.0000 0.8000 (   746 PWs)   bands (ev):

    -1.9029  -1.2988   2.0900   3.5578

          k = 0.6000-0.2000 1.0000 (   750 PWs)   bands (ev):

    -2.6606  -0.4304   2.1726   3.1504

     highest occupied level (ev):     6.1119

!    total energy              =     -93.44939985 Ry
     Harris-Foulkes estimate   =     -93.44940008 Ry
     estimated scf accuracy    <       0.00000085 Ry

     total all-electron energy =     -1160.141136 Ry

     The total energy is the sum of the following terms:

     one-electron contribution =       5.64898967 Ry
     hartree contribution      =       1.11800498 Ry
     xc contribution           =     -12.24755605 Ry
     ewald contribution        =     -16.73568329 Ry
     one-center paw contrib.   =     -71.23315517 Ry

     convergence has been achieved in   4 iterations

     Forces acting on atoms (Ry/au):

     atom    1 type  1   force =     0.00000000    0.00000000    0.00000000
     atom    2 type  1   force =     0.00000000    0.00000000    0.00000000

     Total force =     0.000000     Total SCF correction =     0.000000


     entering subroutine stress ...

          total   stress  (Ry/bohr**3)                   (kbar)     P=   10.14
   0.00006891   0.00000000   0.00000000         10.14      0.00      0.00
   0.00000000   0.00006891  -0.00000000          0.00     10.14     -0.00
   0.00000000  -0.00000000   0.00006891          0.00     -0.00     10.14


     Writing output data file pwscf.save
 
     init_run     :      0.69s CPU      0.70s WALL (       1 calls)
     electrons    :      1.67s CPU      1.69s WALL (       1 calls)
     forces       :      0.05s CPU      0.05s WALL (       1 calls)
     stress       :      0.14s CPU      0.14s WALL (       1 calls)

     Called by init_run:
     wfcinit      :      0.10s CPU      0.11s WALL (       1 calls)
     potinit      :      0.18s CPU      0.18s WALL (       1 calls)

     Called by electrons:
     c_bands      :      0.72s CPU      0.73s WALL (       5 calls)
     sum_band     :      0.20s CPU      0.20s WALL (       5 calls)
     v_of_rho     :      0.09s CPU      0.09s WALL (       5 calls)
     newd         :      0.04s CPU      0.04s WALL (       5 calls)
     mix_rho      :      0.01s CPU      0.01s WALL (       5 calls)

     Called by c_bands:
     init_us_2    :      0.03s CPU      0.03s WALL (     130 calls)
     cegterg      :      0.67s CPU      0.68s WALL (      50 calls)

     Called by *egterg:
     h_psi        :      0.70s CPU      0.71s WALL (     147 calls)
     s_psi        :      0.02s CPU      0.01s WALL (     147 calls)
     g_psi        :      0.00s CPU      0.01s WALL (      87 calls)
     cdiaghg      :      0.01s CPU      0.01s WALL (     127 calls)

     Called by h_psi:
     add_vuspsi   :      0.01s CPU      0.01s WALL (     147 calls)

     General routines
     calbec       :      0.02s CPU      0.02s WALL (     217 calls)
     fft          :      0.07s CPU      0.08s WALL (      92 calls)
     fftw         :      0.75s CPU      0.75s WALL (    1376 calls)
     davcio       :      0.00s CPU      0.00s WALL (      10 calls)
 
     Parallel routines
     fft_scatter  :      0.04s CPU      0.04s WALL (    1468 calls)

     PAW routines
     PAW_pot      :      0.79s CPU      0.79s WALL (       5 calls)
     PAW_symme    :      0.00s CPU      0.00s WALL (      10 calls)
 
     PWSCF        :     2.93s CPU         3.00s WALL

 
   This run was terminated on:  19:57:59  28Apr2015            

=------------------------------------------------------------------------------=
   JOB DONE.
=------------------------------------------------------------------------------=
