
     Program PWSCF v.5.1 starts on 28Apr2015 at 20: 8:14 

     This program is part of the open-source Quantum ESPRESSO suite
     for quantum simulation of materials; please cite
         "P. Giannozzi et al., J. Phys.:Condens. Matter 21 395502 (2009);
          URL http://www.quantum-espresso.org", 
     in publications or presentations arising from this work. More details at
     http://www.quantum-espresso.org/quote

     Parallel version (MPI), running on     1 processors
     Waiting for input...
     Reading input from standard input
Warning: card &IONS ignored
Warning: card / ignored
Warning: card &CELL ignored
Warning: card / ignored

     Current dimensions of program PWSCF are:
     Max number of different atomic species (ntypx) = 10
     Max number of k-points (npk) =  40000
     Max angular momentum in pseudopotentials (lmaxx) =  3
               file Si.pbe-n-kjpaw_psl.0.1.UPF: wavefunction(s)  3S renormalized

     Subspace diagonalization in iterative solution of the eigenvalue problem:
     a serial algorithm will be used

 
     G-vector sticks info
     --------------------
     sticks:   dense  smooth     PW     G-vecs:    dense   smooth      PW
     Sum         433     433    151                 5985     5985    1139
 


     bravais-lattice index     =            2
     lattice parameter (alat)  =      10.3000  a.u.
     unit-cell volume          =     273.1818 (a.u.)^3
     number of atoms/cell      =            2
     number of atomic types    =            1
     number of electrons       =         8.00
     number of Kohn-Sham states=            4
     kinetic-energy cutoff     =      30.0000  Ry
     charge density cutoff     =     120.0000  Ry
     convergence threshold     =      1.0E-06
     mixing beta               =       0.7000
     number of iterations used =            8  plain     mixing
     Exchange-correlation      =  SLA  PW   PBX  PBC ( 1  4  3  4 0)

     celldm(1)=  10.300000  celldm(2)=   0.000000  celldm(3)=   0.000000
     celldm(4)=   0.000000  celldm(5)=   0.000000  celldm(6)=   0.000000

     crystal axes: (cart. coord. in units of alat)
               a(1) = (  -0.500000   0.000000   0.500000 )  
               a(2) = (   0.000000   0.500000   0.500000 )  
               a(3) = (  -0.500000   0.500000   0.000000 )  

     reciprocal axes: (cart. coord. in units 2 pi/alat)
               b(1) = ( -1.000000 -1.000000  1.000000 )  
               b(2) = (  1.000000  1.000000  1.000000 )  
               b(3) = ( -1.000000  1.000000 -1.000000 )  


     PseudoPot. # 1 for Si read from file:
     ./Si.pbe-n-kjpaw_psl.0.1.UPF
     MD5 check sum: b9d333a40e496bef61db012f150758bf
     Pseudo is Projector augmented-wave + core cor, Zval =  4.0
     Generated using "atomic" code by A. Dal Corso  v.5.0.2 svn rev. 9415
     Shape of augmentation charge: PSQ
     Using radial grid of 1141 points,  4 beta functions with: 
                l(1) =   0
                l(2) =   0
                l(3) =   1
                l(4) =   1
     Q(r) pseudized with 0 coefficients 


     atomic species   valence    mass     pseudopotential
        Si             4.00    28.05500     Si( 1.00)

     24 Sym. Ops. (no inversion) found
          (note: 24 additional sym.ops. were found but ignored
           their fractional translations are incommensurate with FFT grid)


   Cartesian axes

     site n.     atom                  positions (alat units)
         1           Si  tau(   1) = (   0.0000000   0.0000000   0.0000000  )
         2           Si  tau(   2) = (  -0.2500000   0.2500000   0.2500000  )

     number of k points=    47
                       cart. coord. in units 2pi/alat
        k(    1) = (   0.0000000   0.0000000   0.0000000), wk =   0.0020000
        k(    2) = (  -0.1000000   0.1000000  -0.1000000), wk =   0.0160000
        k(    3) = (  -0.2000000   0.2000000  -0.2000000), wk =   0.0160000
        k(    4) = (  -0.3000000   0.3000000  -0.3000000), wk =   0.0160000
        k(    5) = (  -0.4000000   0.4000000  -0.4000000), wk =   0.0160000
        k(    6) = (   0.5000000  -0.5000000   0.5000000), wk =   0.0080000
        k(    7) = (   0.0000000   0.2000000   0.0000000), wk =   0.0120000
        k(    8) = (  -0.1000000   0.3000000  -0.1000000), wk =   0.0480000
        k(    9) = (  -0.2000000   0.4000000  -0.2000000), wk =   0.0480000
        k(   10) = (  -0.3000000   0.5000000  -0.3000000), wk =   0.0480000
        k(   11) = (   0.6000000  -0.4000000   0.6000000), wk =   0.0480000
        k(   12) = (   0.5000000  -0.3000000   0.5000000), wk =   0.0480000
        k(   13) = (   0.4000000  -0.2000000   0.4000000), wk =   0.0480000
        k(   14) = (   0.3000000  -0.1000000   0.3000000), wk =   0.0480000
        k(   15) = (   0.2000000   0.0000000   0.2000000), wk =   0.0240000
        k(   16) = (   0.0000000   0.4000000   0.0000000), wk =   0.0120000
        k(   17) = (  -0.1000000   0.5000000  -0.1000000), wk =   0.0480000
        k(   18) = (  -0.2000000   0.6000000  -0.2000000), wk =   0.0480000
        k(   19) = (   0.7000000  -0.3000000   0.7000000), wk =   0.0480000
        k(   20) = (   0.6000000  -0.2000000   0.6000000), wk =   0.0480000
        k(   21) = (   0.5000000  -0.1000000   0.5000000), wk =   0.0480000
        k(   22) = (   0.4000000   0.0000000   0.4000000), wk =   0.0240000
        k(   23) = (   0.0000000   0.6000000   0.0000000), wk =   0.0120000
        k(   24) = (  -0.1000000   0.7000000  -0.1000000), wk =   0.0480000
        k(   25) = (   0.8000000  -0.2000000   0.8000000), wk =   0.0480000
        k(   26) = (   0.7000000  -0.1000000   0.7000000), wk =   0.0480000
        k(   27) = (   0.6000000  -0.0000000   0.6000000), wk =   0.0240000
        k(   28) = (   0.0000000   0.8000000   0.0000000), wk =   0.0120000
        k(   29) = (   0.9000000  -0.1000000   0.9000000), wk =   0.0480000
        k(   30) = (   0.8000000   0.0000000   0.8000000), wk =   0.0240000
        k(   31) = (   0.0000000  -1.0000000   0.0000000), wk =   0.0060000
        k(   32) = (  -0.2000000   0.4000000   0.0000000), wk =   0.0480000
        k(   33) = (  -0.3000000   0.5000000  -0.1000000), wk =   0.0960000
        k(   34) = (   0.6000000  -0.4000000   0.8000000), wk =   0.0960000
        k(   35) = (   0.5000000  -0.3000000   0.7000000), wk =   0.0480000
        k(   36) = (  -0.2000000   0.6000000   0.0000000), wk =   0.0480000
        k(   37) = (   0.7000000  -0.3000000   0.9000000), wk =   0.0960000
        k(   38) = (   0.6000000  -0.2000000   0.8000000), wk =   0.0960000
        k(   39) = (   0.5000000  -0.1000000   0.7000000), wk =   0.0960000
        k(   40) = (   0.4000000   0.0000000   0.6000000), wk =   0.0480000
        k(   41) = (   0.8000000  -0.2000000   1.0000000), wk =   0.0480000
        k(   42) = (   0.7000000  -0.1000000   0.9000000), wk =   0.0960000
        k(   43) = (   0.6000000   0.0000000   0.8000000), wk =   0.0480000
        k(   44) = (  -0.2000000  -1.0000000   0.0000000), wk =   0.0240000
        k(   45) = (   0.6000000  -0.2000000   1.0000000), wk =   0.0480000
        k(   46) = (   0.5000000  -0.1000000   0.9000000), wk =   0.0480000
        k(   47) = (  -0.4000000  -1.0000000   0.0000000), wk =   0.0240000

     Dense  grid:     5985 G-vectors     FFT dimensions: (  25,  25,  25)

     Largest allocated arrays     est. size (Mb)     dimensions
        Kohn-Sham Wavefunctions         0.05 Mb     (     769,    4)
        NL pseudopotentials             0.19 Mb     (     769,   16)
        Each V/rho on FFT grid          0.24 Mb     (   15625)
        Each G-vector array             0.05 Mb     (    5985)
        G-vector shells                 0.00 Mb     (     109)
     Largest temporary arrays     est. size (Mb)     dimensions
        Auxiliary wavefunctions         0.19 Mb     (     769,   16)
        Each subspace H/S matrix        0.00 Mb     (      16,   16)
        Each <psi_i|beta_j> matrix      0.00 Mb     (      16,    4)
        Arrays for rho mixing           1.91 Mb     (   15625,    8)

     Check: negative/imaginary core charge=   -0.000004    0.000000

     Initial potential from superposition of free atoms

     starting charge    7.99888, renormalised to    8.00000
     Starting wfc are    8 randomized atomic wfcs
     Checking if some PAW data can be deallocated... 

     total cpu time spent up to now is        2.6 secs

     per-process dynamical memory:     8.5 Mb

     Self-consistent Calculation

     iteration #  1     ecut=    30.00 Ry     beta=0.70
     Davidson diagonalization with overlap
     ethr =  1.00E-02,  avg # of iterations =  2.0

     Threshold (ethr) on eigenvalues was too large:
     Diagonalizing with lowered threshold

     Davidson diagonalization with overlap
     ethr =  7.03E-04,  avg # of iterations =  1.0

     total cpu time spent up to now is        4.4 secs

     total energy              =     -93.45172162 Ry
     Harris-Foulkes estimate   =     -93.46498901 Ry
     estimated scf accuracy    <       0.05589044 Ry

     iteration #  2     ecut=    30.00 Ry     beta=0.70
     Davidson diagonalization with overlap
     ethr =  6.99E-04,  avg # of iterations =  1.0

     total cpu time spent up to now is        5.3 secs

     total energy              =     -93.45374166 Ry
     Harris-Foulkes estimate   =     -93.45387748 Ry
     estimated scf accuracy    <       0.00243208 Ry

     iteration #  3     ecut=    30.00 Ry     beta=0.70
     Davidson diagonalization with overlap
     ethr =  3.04E-05,  avg # of iterations =  2.0

     total cpu time spent up to now is        6.3 secs

     total energy              =     -93.45402248 Ry
     Harris-Foulkes estimate   =     -93.45404081 Ry
     estimated scf accuracy    <       0.00005231 Ry

     iteration #  4     ecut=    30.00 Ry     beta=0.70
     Davidson diagonalization with overlap
     ethr =  6.54E-07,  avg # of iterations =  2.9

     total cpu time spent up to now is        7.6 secs

     total energy              =     -93.45404811 Ry
     Harris-Foulkes estimate   =     -93.45404915 Ry
     estimated scf accuracy    <       0.00000277 Ry

     iteration #  5     ecut=    30.00 Ry     beta=0.70
     Davidson diagonalization with overlap
     ethr =  3.46E-08,  avg # of iterations =  2.7

     total cpu time spent up to now is        8.7 secs

     End of self-consistent calculation

          k = 0.0000 0.0000 0.0000 (   749 PWs)   bands (ev):

    -5.7950   6.0970   6.0970   6.0970

          k =-0.1000 0.1000-0.1000 (   743 PWs)   bands (ev):

    -5.6651   4.9517   5.9008   5.9008

          k =-0.2000 0.2000-0.2000 (   769 PWs)   bands (ev):

    -5.2820   3.0996   5.5230   5.5230

          k =-0.3000 0.3000-0.3000 (   763 PWs)   bands (ev):

    -4.6724   1.3273   5.1901   5.1901

          k =-0.4000 0.4000-0.4000 (   763 PWs)   bands (ev):

    -3.9338  -0.1351   4.9786   4.9786

          k = 0.5000-0.5000 0.5000 (   754 PWs)   bands (ev):

    -3.4892  -0.8243   4.9072   4.9072

          k = 0.0000 0.2000 0.0000 (   753 PWs)   bands (ev):

    -5.6216   5.1474   5.5278   5.5278

          k =-0.1000 0.3000-0.1000 (   769 PWs)   bands (ev):

    -5.3217   3.6482   5.0967   5.2607

          k =-0.2000 0.4000-0.2000 (   764 PWs)   bands (ev):

    -4.7831   1.9025   4.7797   4.8297

          k =-0.3000 0.5000-0.3000 (   766 PWs)   bands (ev):

    -4.0666   0.3436   4.4210   4.6324

          k = 0.6000-0.4000 0.6000 (   757 PWs)   bands (ev):

    -3.4346  -0.6816   4.1335   4.6641

          k = 0.5000-0.3000 0.5000 (   761 PWs)   bands (ev):

    -3.5993  -0.4360   4.0073   4.8615

          k = 0.4000-0.2000 0.4000 (   765 PWs)   bands (ev):

    -4.3193   0.8328   4.0686   5.1930

          k = 0.3000-0.1000 0.3000 (   764 PWs)   bands (ev):

    -4.9886   2.4674   4.3443   5.5958

          k = 0.2000 0.0000 0.2000 (   763 PWs)   bands (ev):

    -5.4504   4.0659   4.9509   5.9206

          k = 0.0000 0.4000 0.0000 (   753 PWs)   bands (ev):

    -5.1054   3.4645   4.6252   4.6252

          k =-0.1000 0.5000-0.1000 (   756 PWs)   bands (ev):

    -4.6438   2.2302   4.1198   4.2796

          k =-0.2000 0.6000-0.2000 (   759 PWs)   bands (ev):

    -3.9750   0.8085   3.4954   4.1206

          k = 0.7000-0.3000 0.7000 (   757 PWs)   bands (ev):

    -3.2528  -0.3619   2.9896   4.1634

          k = 0.6000-0.2000 0.6000 (   753 PWs)   bands (ev):

    -3.1024  -0.5670   2.6947   4.3990

          k = 0.5000-0.1000 0.5000 (   763 PWs)   bands (ev):

    -3.7477   0.4074   2.6772   4.7923

          k = 0.4000 0.0000 0.4000 (   766 PWs)   bands (ev):

    -4.4583   1.6332   3.1294   5.2578

          k = 0.0000 0.6000 0.0000 (   761 PWs)   bands (ev):

    -4.2590   1.6838   3.8900   3.8900

          k =-0.1000 0.7000-0.1000 (   764 PWs)   bands (ev):

    -3.6518   0.6868   3.2713   3.6866

          k = 0.8000-0.2000 0.8000 (   758 PWs)   bands (ev):

    -2.9096  -0.3090   2.4520   3.6928

          k = 0.7000-0.1000 0.7000 (   756 PWs)   bands (ev):

    -2.4970  -0.7778   1.9049   3.9060

          k = 0.6000-0.0000 0.6000 (   756 PWs)   bands (ev):

    -3.0290  -0.1942   1.8797   4.2984

          k = 0.0000 0.8000 0.0000 (   753 PWs)   bands (ev):

    -3.1064  -0.0636   3.4287   3.4287

          k = 0.9000-0.1000 0.9000 (   761 PWs)   bands (ev):

    -2.3845  -0.8969   2.8515   3.3803

          k = 0.8000 0.0000 0.8000 (   746 PWs)   bands (ev):

    -1.9163  -1.3120   2.0797   3.5460

          k = 0.0000-1.0000 0.0000 (   740 PWs)   bands (ev):

    -1.6876  -1.6875   3.2723   3.2723

          k =-0.2000 0.4000 0.0000 (   766 PWs)   bands (ev):

    -4.9417   2.7265   4.0395   5.1327

          k =-0.3000 0.5000-0.1000 (   759 PWs)   bands (ev):

    -4.3359   1.3309   3.4530   4.7622

          k = 0.6000-0.4000 0.8000 (   765 PWs)   bands (ev):

    -3.5974  -0.0169   3.2201   4.4166

          k = 0.5000-0.3000 0.7000 (   754 PWs)   bands (ev):

    -3.1451  -0.6856   3.1595   4.2808

          k =-0.2000 0.6000 0.0000 (   758 PWs)   bands (ev):

    -4.1109   1.3329   3.3195   4.0330

          k = 0.7000-0.3000 0.9000 (   760 PWs)   bands (ev):

    -3.3980   0.2421   2.7058   3.7089

          k = 0.6000-0.2000 0.8000 (   751 PWs)   bands (ev):

    -2.7564  -0.6091   2.3004   3.6540

          k = 0.5000-0.1000 0.7000 (   755 PWs)   bands (ev):

    -2.9554  -0.3533   2.1528   3.8909

          k = 0.4000 0.0000 0.6000 (   760 PWs)   bands (ev):

    -3.6824   0.5858   2.4523   4.3256

          k = 0.8000-0.2000 1.0000 (   754 PWs)   bands (ev):

    -2.9898  -0.1491   2.9125   3.2364

          k = 0.7000-0.1000 0.9000 (   752 PWs)   bands (ev):

    -2.2599  -0.9167   2.2209   3.1464

          k = 0.6000 0.0000 0.8000 (   750 PWs)   bands (ev):

    -2.2674  -0.8885   1.8105   3.4131

          k =-0.2000-1.0000 0.0000 (   754 PWs)   bands (ev):

    -1.6359  -1.6359   2.8706   2.8706

          k = 0.6000-0.2000 1.0000 (   750 PWs)   bands (ev):

    -2.6736  -0.4440   2.1621   3.1394

          k = 0.5000-0.1000 0.9000 (   746 PWs)   bands (ev):

    -2.1688  -0.9482   2.0067   2.8913

          k =-0.4000-1.0000 0.0000 (   756 PWs)   bands (ev):

    -1.5451  -1.5450   2.3658   2.3659

     highest occupied level (ev):     6.0970

!    total energy              =     -93.45404899 Ry
     Harris-Foulkes estimate   =     -93.45404907 Ry
     estimated scf accuracy    <       0.00000009 Ry

     total all-electron energy =     -1160.145785 Ry

     The total energy is the sum of the following terms:

     one-electron contribution =       5.64926166 Ry
     hartree contribution      =       1.10729429 Ry
     xc contribution           =     -12.24225640 Ry
     ewald contribution        =     -16.73568329 Ry
     one-center paw contrib.   =     -71.23266526 Ry

     convergence has been achieved in   5 iterations

     Forces acting on atoms (Ry/au):

     atom    1 type  1   force =     0.00000000    0.00000000    0.00000000
     atom    2 type  1   force =    -0.00000000    0.00000000   -0.00000000

     Total force =     0.000000     Total SCF correction =     0.000000


     entering subroutine stress ...

          total   stress  (Ry/bohr**3)                   (kbar)     P=    7.62
   0.00005180   0.00000000  -0.00000000          7.62      0.00     -0.00
   0.00000000   0.00005180  -0.00000000          0.00      7.62     -0.00
   0.00000000  -0.00000000   0.00005180          0.00     -0.00      7.62


     Writing output data file pwscf.save
 
     init_run     :      1.11s CPU      2.31s WALL (       1 calls)
     electrons    :      6.08s CPU      6.14s WALL (       1 calls)
     forces       :      0.08s CPU      0.08s WALL (       1 calls)
     stress       :      0.28s CPU      0.28s WALL (       1 calls)

     Called by init_run:
     wfcinit      :      0.52s CPU      0.53s WALL (       1 calls)
     potinit      :      0.18s CPU      0.18s WALL (       1 calls)

     Called by electrons:
     c_bands      :      4.30s CPU      4.35s WALL (       6 calls)
     sum_band     :      0.84s CPU      0.85s WALL (       6 calls)
     v_of_rho     :      0.11s CPU      0.11s WALL (       6 calls)
     newd         :      0.05s CPU      0.05s WALL (       6 calls)
     mix_rho      :      0.01s CPU      0.01s WALL (       6 calls)

     Called by c_bands:
     init_us_2    :      0.19s CPU      0.19s WALL (     705 calls)
     cegterg      :      3.99s CPU      4.02s WALL (     282 calls)

     Called by *egterg:
     h_psi        :      4.09s CPU      4.14s WALL (     873 calls)
     s_psi        :      0.09s CPU      0.08s WALL (     873 calls)
     g_psi        :      0.04s CPU      0.04s WALL (     544 calls)
     cdiaghg      :      0.07s CPU      0.07s WALL (     779 calls)

     Called by h_psi:
     add_vuspsi   :      0.06s CPU      0.08s WALL (     873 calls)

     General routines
     calbec       :      0.12s CPU      0.12s WALL (    1249 calls)
     fft          :      0.08s CPU      0.09s WALL (     105 calls)
     fftw         :      4.30s CPU      4.33s WALL (    7834 calls)
     davcio       :      0.00s CPU      0.00s WALL (      47 calls)
 
     Parallel routines
     fft_scatter  :      0.18s CPU      0.20s WALL (    7939 calls)

     PAW routines
     PAW_pot      :      0.94s CPU      0.95s WALL (       6 calls)
     PAW_symme    :      0.00s CPU      0.00s WALL (      12 calls)
 
     PWSCF        :     8.01s CPU         9.38s WALL

 
   This run was terminated on:  20: 8:23  28Apr2015            

=------------------------------------------------------------------------------=
   JOB DONE.
=------------------------------------------------------------------------------=
