
     Program PWSCF v.5.1 starts on 28Apr2015 at 20: 5:27 

     This program is part of the open-source Quantum ESPRESSO suite
     for quantum simulation of materials; please cite
         "P. Giannozzi et al., J. Phys.:Condens. Matter 21 395502 (2009);
          URL http://www.quantum-espresso.org", 
     in publications or presentations arising from this work. More details at
     http://www.quantum-espresso.org/quote

     Parallel version (MPI), running on     1 processors
     Waiting for input...
     Reading input from standard input
Warning: card &IONS ignored
Warning: card / ignored
Warning: card &CELL ignored
Warning: card / ignored

     Current dimensions of program PWSCF are:
     Max number of different atomic species (ntypx) = 10
     Max number of k-points (npk) =  40000
     Max angular momentum in pseudopotentials (lmaxx) =  3
               file Si.pbe-n-kjpaw_psl.0.1.UPF: wavefunction(s)  3S renormalized

     Subspace diagonalization in iterative solution of the eigenvalue problem:
     a serial algorithm will be used

 
     G-vector sticks info
     --------------------
     sticks:   dense  smooth     PW     G-vecs:    dense   smooth      PW
     Sum         433     433    151                 5985     5985    1139
 


     bravais-lattice index     =            2
     lattice parameter (alat)  =      10.3000  a.u.
     unit-cell volume          =     273.1818 (a.u.)^3
     number of atoms/cell      =            2
     number of atomic types    =            1
     number of electrons       =         8.00
     number of Kohn-Sham states=            4
     kinetic-energy cutoff     =      30.0000  Ry
     charge density cutoff     =     120.0000  Ry
     convergence threshold     =      1.0E-06
     mixing beta               =       0.7000
     number of iterations used =            8  plain     mixing
     Exchange-correlation      =  SLA  PW   PBX  PBC ( 1  4  3  4 0)

     celldm(1)=  10.300000  celldm(2)=   0.000000  celldm(3)=   0.000000
     celldm(4)=   0.000000  celldm(5)=   0.000000  celldm(6)=   0.000000

     crystal axes: (cart. coord. in units of alat)
               a(1) = (  -0.500000   0.000000   0.500000 )  
               a(2) = (   0.000000   0.500000   0.500000 )  
               a(3) = (  -0.500000   0.500000   0.000000 )  

     reciprocal axes: (cart. coord. in units 2 pi/alat)
               b(1) = ( -1.000000 -1.000000  1.000000 )  
               b(2) = (  1.000000  1.000000  1.000000 )  
               b(3) = ( -1.000000  1.000000 -1.000000 )  


     PseudoPot. # 1 for Si read from file:
     ./Si.pbe-n-kjpaw_psl.0.1.UPF
     MD5 check sum: b9d333a40e496bef61db012f150758bf
     Pseudo is Projector augmented-wave + core cor, Zval =  4.0
     Generated using "atomic" code by A. Dal Corso  v.5.0.2 svn rev. 9415
     Shape of augmentation charge: PSQ
     Using radial grid of 1141 points,  4 beta functions with: 
                l(1) =   0
                l(2) =   0
                l(3) =   1
                l(4) =   1
     Q(r) pseudized with 0 coefficients 


     atomic species   valence    mass     pseudopotential
        Si             4.00    28.05500     Si( 1.00)

     24 Sym. Ops. (no inversion) found
          (note: 24 additional sym.ops. were found but ignored
           their fractional translations are incommensurate with FFT grid)


   Cartesian axes

     site n.     atom                  positions (alat units)
         1           Si  tau(   1) = (   0.0000000   0.0000000   0.0000000  )
         2           Si  tau(   2) = (  -0.2500000   0.2500000   0.2500000  )

     number of k points=    35
                       cart. coord. in units 2pi/alat
        k(    1) = (   0.0000000   0.0000000   0.0000000), wk =   0.0027435
        k(    2) = (  -0.1111111   0.1111111  -0.1111111), wk =   0.0219479
        k(    3) = (  -0.2222222   0.2222222  -0.2222222), wk =   0.0219479
        k(    4) = (  -0.3333333   0.3333333  -0.3333333), wk =   0.0219479
        k(    5) = (  -0.4444444   0.4444444  -0.4444444), wk =   0.0219479
        k(    6) = (   0.0000000   0.2222222   0.0000000), wk =   0.0164609
        k(    7) = (  -0.1111111   0.3333333  -0.1111111), wk =   0.0658436
        k(    8) = (  -0.2222222   0.4444444  -0.2222222), wk =   0.0658436
        k(    9) = (  -0.3333333   0.5555556  -0.3333333), wk =   0.0658436
        k(   10) = (   0.5555556  -0.3333333   0.5555556), wk =   0.0658436
        k(   11) = (   0.4444444  -0.2222222   0.4444444), wk =   0.0658436
        k(   12) = (   0.3333333  -0.1111111   0.3333333), wk =   0.0658436
        k(   13) = (   0.2222222  -0.0000000   0.2222222), wk =   0.0329218
        k(   14) = (   0.0000000   0.4444444   0.0000000), wk =   0.0164609
        k(   15) = (  -0.1111111   0.5555556  -0.1111111), wk =   0.0658436
        k(   16) = (  -0.2222222   0.6666667  -0.2222222), wk =   0.0658436
        k(   17) = (   0.6666667  -0.2222222   0.6666667), wk =   0.0658436
        k(   18) = (   0.5555556  -0.1111111   0.5555556), wk =   0.0658436
        k(   19) = (   0.4444444   0.0000000   0.4444444), wk =   0.0329218
        k(   20) = (   0.0000000   0.6666667   0.0000000), wk =   0.0164609
        k(   21) = (  -0.1111111   0.7777778  -0.1111111), wk =   0.0658436
        k(   22) = (   0.7777778  -0.1111111   0.7777778), wk =   0.0658436
        k(   23) = (   0.6666667  -0.0000000   0.6666667), wk =   0.0329218
        k(   24) = (   0.0000000   0.8888889   0.0000000), wk =   0.0164609
        k(   25) = (   0.8888889   0.0000000   0.8888889), wk =   0.0329218
        k(   26) = (  -0.2222222   0.4444444   0.0000000), wk =   0.0658436
        k(   27) = (  -0.3333333   0.5555556  -0.1111111), wk =   0.1316872
        k(   28) = (   0.5555556  -0.3333333   0.7777778), wk =   0.1316872
        k(   29) = (  -0.2222222   0.6666667   0.0000000), wk =   0.0658436
        k(   30) = (   0.6666667  -0.2222222   0.8888889), wk =   0.1316872
        k(   31) = (   0.5555556  -0.1111111   0.7777778), wk =   0.1316872
        k(   32) = (   0.4444444   0.0000000   0.6666667), wk =   0.0658436
        k(   33) = (   0.7777778  -0.1111111   1.0000000), wk =   0.0658436
        k(   34) = (   0.6666667  -0.0000000   0.8888889), wk =   0.0658436
        k(   35) = (   0.5555556  -0.1111111   1.0000000), wk =   0.0658436

     Dense  grid:     5985 G-vectors     FFT dimensions: (  25,  25,  25)

     Largest allocated arrays     est. size (Mb)     dimensions
        Kohn-Sham Wavefunctions         0.05 Mb     (     769,    4)
        NL pseudopotentials             0.19 Mb     (     769,   16)
        Each V/rho on FFT grid          0.24 Mb     (   15625)
        Each G-vector array             0.05 Mb     (    5985)
        G-vector shells                 0.00 Mb     (     109)
     Largest temporary arrays     est. size (Mb)     dimensions
        Auxiliary wavefunctions         0.19 Mb     (     769,   16)
        Each subspace H/S matrix        0.00 Mb     (      16,   16)
        Each <psi_i|beta_j> matrix      0.00 Mb     (      16,    4)
        Arrays for rho mixing           1.91 Mb     (   15625,    8)

     Check: negative/imaginary core charge=   -0.000004    0.000000

     Initial potential from superposition of free atoms

     starting charge    7.99888, renormalised to    8.00000
     Starting wfc are    8 randomized atomic wfcs
     Checking if some PAW data can be deallocated... 

     total cpu time spent up to now is        1.3 secs

     per-process dynamical memory:     8.1 Mb

     Self-consistent Calculation

     iteration #  1     ecut=    30.00 Ry     beta=0.70
     Davidson diagonalization with overlap
     ethr =  1.00E-02,  avg # of iterations =  2.0

     Threshold (ethr) on eigenvalues was too large:
     Diagonalizing with lowered threshold

     Davidson diagonalization with overlap
     ethr =  7.04E-04,  avg # of iterations =  1.0

     total cpu time spent up to now is        2.7 secs

     total energy              =     -93.45164453 Ry
     Harris-Foulkes estimate   =     -93.46493529 Ry
     estimated scf accuracy    <       0.05597005 Ry

     iteration #  2     ecut=    30.00 Ry     beta=0.70
     Davidson diagonalization with overlap
     ethr =  7.00E-04,  avg # of iterations =  1.0

     total cpu time spent up to now is        3.4 secs

     total energy              =     -93.45367274 Ry
     Harris-Foulkes estimate   =     -93.45380778 Ry
     estimated scf accuracy    <       0.00243152 Ry

     iteration #  3     ecut=    30.00 Ry     beta=0.70
     Davidson diagonalization with overlap
     ethr =  3.04E-05,  avg # of iterations =  2.0

     total cpu time spent up to now is        4.2 secs

     total energy              =     -93.45395330 Ry
     Harris-Foulkes estimate   =     -93.45397116 Ry
     estimated scf accuracy    <       0.00005214 Ry

     iteration #  4     ecut=    30.00 Ry     beta=0.70
     Davidson diagonalization with overlap
     ethr =  6.52E-07,  avg # of iterations =  2.9

     total cpu time spent up to now is        5.2 secs

     total energy              =     -93.45397871 Ry
     Harris-Foulkes estimate   =     -93.45397968 Ry
     estimated scf accuracy    <       0.00000258 Ry

     iteration #  5     ecut=    30.00 Ry     beta=0.70
     Davidson diagonalization with overlap
     ethr =  3.22E-08,  avg # of iterations =  2.6

     total cpu time spent up to now is        6.1 secs

     End of self-consistent calculation

          k = 0.0000 0.0000 0.0000 (   749 PWs)   bands (ev):

    -5.7947   6.0974   6.0974   6.0974

          k =-0.1111 0.1111-0.1111 (   746 PWs)   bands (ev):

    -5.6345   4.7540   5.8623   5.8623

          k =-0.2222 0.2222-0.2222 (   763 PWs)   bands (ev):

    -5.1642   2.6902   5.4412   5.4412

          k =-0.3333 0.3333-0.3333 (   769 PWs)   bands (ev):

    -4.4307   0.7933   5.1049   5.1049

          k =-0.4444 0.4444-0.4444 (   766 PWs)   bands (ev):

    -3.6492  -0.5881   4.9296   4.9296

          k = 0.0000 0.2222 0.0000 (   761 PWs)   bands (ev):

    -5.5807   4.9749   5.4279   5.4279

          k =-0.1111 0.3333-0.1111 (   762 PWs)   bands (ev):

    -5.2118   3.3040   4.9583   5.0897

          k =-0.2222 0.4444-0.2222 (   763 PWs)   bands (ev):

    -4.5571   1.4125   4.5869   4.6547

          k =-0.3333 0.5556-0.3333 (   762 PWs)   bands (ev):

    -3.7397  -0.1626   4.1544   4.5722

          k = 0.5556-0.3333 0.5556 (   754 PWs)   bands (ev):

    -3.3664  -0.7279   3.8984   4.7101

          k = 0.4444-0.2222 0.4444 (   765 PWs)   bands (ev):

    -4.0149   0.3089   3.8662   5.0372

          k = 0.3333-0.1111 0.3333 (   763 PWs)   bands (ev):

    -4.8056   2.0227   4.0992   5.4832

          k = 0.2222-0.0000 0.2222 (   763 PWs)   bands (ev):

    -5.3702   3.7749   4.7475   5.8739

          k = 0.0000 0.4444 0.0000 (   761 PWs)   bands (ev):

    -4.9449   3.0711   4.4417   4.4417

          k =-0.1111 0.5556-0.1111 (   758 PWs)   bands (ev):

    -4.3805   1.7498   3.8203   4.1018

          k =-0.2222 0.6667-0.2222 (   762 PWs)   bands (ev):

    -3.5893   0.2932   3.0847   4.0040

          k = 0.6667-0.2222 0.6667 (   761 PWs)   bands (ev):

    -2.9428  -0.6372   2.5692   4.1572

          k = 0.5556-0.1111 0.5556 (   757 PWs)   bands (ev):

    -3.3499  -0.0662   2.3915   4.5346

          k = 0.4444 0.0000 0.4444 (   754 PWs)   bands (ev):

    -4.1640   1.1693   2.7759   5.0517

          k = 0.0000 0.6667 0.0000 (   769 PWs)   bands (ev):

    -3.9070   1.0935   3.7039   3.7039

          k =-0.1111 0.7778-0.1111 (   757 PWs)   bands (ev):

    -3.1749   0.0514   2.9874   3.5476

          k = 0.7778-0.1111 0.7778 (   755 PWs)   bands (ev):

    -2.3896  -0.8376   2.0940   3.6537

          k = 0.6667-0.0000 0.6667 (   740 PWs)   bands (ev):

    -2.5634  -0.6475   1.7352   4.0058

          k = 0.0000 0.8889 0.0000 (   753 PWs)   bands (ev):

    -2.5053  -0.8055   3.3210   3.3210

          k = 0.8889 0.0000 0.8889 (   752 PWs)   bands (ev):

    -1.7409  -1.5712   2.7148   3.3581

          k =-0.2222 0.4444 0.0000 (   762 PWs)   bands (ev):

    -4.7462   2.3130   3.7541   4.9408

          k =-0.3333 0.5556-0.1111 (   764 PWs)   bands (ev):

    -4.0178   0.8370   3.1490   4.5086

          k = 0.5556-0.3333 0.7778 (   755 PWs)   bands (ev):

    -3.2306  -0.4371   2.9549   4.1894

          k =-0.2222 0.6667 0.0000 (   762 PWs)   bands (ev):

    -3.7347   0.7935   3.0488   3.7325

          k = 0.6667-0.2222 0.8889 (   751 PWs)   bands (ev):

    -2.9164  -0.2803   2.3907   3.4304

          k = 0.5556-0.1111 0.7778 (   745 PWs)   bands (ev):

    -2.5562  -0.7002   2.0084   3.5415

          k = 0.4444 0.0000 0.6667 (   759 PWs)   bands (ev):

    -3.2492   0.0931   2.1553   3.9734

          k = 0.7778-0.1111 1.0000 (   749 PWs)   bands (ev):

    -2.3909  -0.8224   2.7645   2.9727

          k = 0.6667-0.0000 0.8889 (   751 PWs)   bands (ev):

    -1.8753  -1.2786   2.0511   3.0598

          k = 0.5556-0.1111 1.0000 (   749 PWs)   bands (ev):

    -2.1187  -0.9679   2.0889   2.7249

     highest occupied level (ev):     6.0974

!    total energy              =     -93.45397953 Ry
     Harris-Foulkes estimate   =     -93.45397960 Ry
     estimated scf accuracy    <       0.00000008 Ry

     total all-electron energy =     -1160.145716 Ry

     The total energy is the sum of the following terms:

     one-electron contribution =       5.64921039 Ry
     hartree contribution      =       1.10754064 Ry
     xc contribution           =     -12.24237611 Ry
     ewald contribution        =     -16.73568329 Ry
     one-center paw contrib.   =     -71.23267117 Ry

     convergence has been achieved in   5 iterations

     Forces acting on atoms (Ry/au):

     atom    1 type  1   force =     0.00000000    0.00000000   -0.00000000
     atom    2 type  1   force =    -0.00000000   -0.00000000    0.00000000

     Total force =     0.000000     Total SCF correction =     0.000000


     entering subroutine stress ...

          total   stress  (Ry/bohr**3)                   (kbar)     P=    7.64
   0.00005192   0.00000000  -0.00000000          7.64      0.00     -0.00
   0.00000000   0.00005192  -0.00000000          0.00      7.64     -0.00
  -0.00000000  -0.00000000   0.00005192         -0.00     -0.00      7.64


     Writing output data file pwscf.save
 
     init_run     :      0.96s CPU      0.98s WALL (       1 calls)
     electrons    :      4.76s CPU      4.81s WALL (       1 calls)
     forces       :      0.07s CPU      0.07s WALL (       1 calls)
     stress       :      0.24s CPU      0.24s WALL (       1 calls)

     Called by init_run:
     wfcinit      :      0.38s CPU      0.39s WALL (       1 calls)
     potinit      :      0.18s CPU      0.18s WALL (       1 calls)

     Called by electrons:
     c_bands      :      3.17s CPU      3.21s WALL (       6 calls)
     sum_band     :      0.65s CPU      0.66s WALL (       6 calls)
     v_of_rho     :      0.11s CPU      0.11s WALL (       6 calls)
     newd         :      0.05s CPU      0.05s WALL (       6 calls)
     mix_rho      :      0.01s CPU      0.01s WALL (       6 calls)

     Called by c_bands:
     init_us_2    :      0.14s CPU      0.14s WALL (     525 calls)
     cegterg      :      2.93s CPU      2.97s WALL (     210 calls)

     Called by *egterg:
     h_psi        :      3.00s CPU      3.05s WALL (     651 calls)
     s_psi        :      0.06s CPU      0.06s WALL (     651 calls)
     g_psi        :      0.02s CPU      0.03s WALL (     406 calls)
     cdiaghg      :      0.05s CPU      0.05s WALL (     581 calls)

     Called by h_psi:
     add_vuspsi   :      0.05s CPU      0.06s WALL (     651 calls)

     General routines
     calbec       :      0.10s CPU      0.09s WALL (     931 calls)
     fft          :      0.10s CPU      0.09s WALL (     105 calls)
     fftw         :      3.18s CPU      3.20s WALL (    5830 calls)
     davcio       :      0.00s CPU      0.00s WALL (      35 calls)
 
     Parallel routines
     fft_scatter  :      0.13s CPU      0.15s WALL (    5935 calls)

     PAW routines
     PAW_pot      :      0.95s CPU      0.95s WALL (       6 calls)
     PAW_symme    :      0.00s CPU      0.00s WALL (      12 calls)
 
     PWSCF        :     6.46s CPU         6.96s WALL

 
   This run was terminated on:  20: 5:34  28Apr2015            

=------------------------------------------------------------------------------=
   JOB DONE.
=------------------------------------------------------------------------------=
