
     Program PWSCF v.5.1 starts on 28Apr2015 at 19:58: 0 

     This program is part of the open-source Quantum ESPRESSO suite
     for quantum simulation of materials; please cite
         "P. Giannozzi et al., J. Phys.:Condens. Matter 21 395502 (2009);
          URL http://www.quantum-espresso.org", 
     in publications or presentations arising from this work. More details at
     http://www.quantum-espresso.org/quote

     Parallel version (MPI), running on     1 processors
     Waiting for input...
     Reading input from standard input
Warning: card &IONS ignored
Warning: card / ignored
Warning: card &CELL ignored
Warning: card / ignored

     Current dimensions of program PWSCF are:
     Max number of different atomic species (ntypx) = 10
     Max number of k-points (npk) =  40000
     Max angular momentum in pseudopotentials (lmaxx) =  3
               file Si.pbe-n-kjpaw_psl.0.1.UPF: wavefunction(s)  3S renormalized

     Subspace diagonalization in iterative solution of the eigenvalue problem:
     a serial algorithm will be used

 
     G-vector sticks info
     --------------------
     sticks:   dense  smooth     PW     G-vecs:    dense   smooth      PW
     Sum         583     583    187                 9377     9377    1639
 


     bravais-lattice index     =            2
     lattice parameter (alat)  =      10.3000  a.u.
     unit-cell volume          =     273.1818 (a.u.)^3
     number of atoms/cell      =            2
     number of atomic types    =            1
     number of electrons       =         8.00
     number of Kohn-Sham states=            4
     kinetic-energy cutoff     =      40.0000  Ry
     charge density cutoff     =     160.0000  Ry
     convergence threshold     =      1.0E-06
     mixing beta               =       0.7000
     number of iterations used =            8  plain     mixing
     Exchange-correlation      =  SLA  PW   PBX  PBC ( 1  4  3  4 0)

     celldm(1)=  10.300000  celldm(2)=   0.000000  celldm(3)=   0.000000
     celldm(4)=   0.000000  celldm(5)=   0.000000  celldm(6)=   0.000000

     crystal axes: (cart. coord. in units of alat)
               a(1) = (  -0.500000   0.000000   0.500000 )  
               a(2) = (   0.000000   0.500000   0.500000 )  
               a(3) = (  -0.500000   0.500000   0.000000 )  

     reciprocal axes: (cart. coord. in units 2 pi/alat)
               b(1) = ( -1.000000 -1.000000  1.000000 )  
               b(2) = (  1.000000  1.000000  1.000000 )  
               b(3) = ( -1.000000  1.000000 -1.000000 )  


     PseudoPot. # 1 for Si read from file:
     ./Si.pbe-n-kjpaw_psl.0.1.UPF
     MD5 check sum: b9d333a40e496bef61db012f150758bf
     Pseudo is Projector augmented-wave + core cor, Zval =  4.0
     Generated using "atomic" code by A. Dal Corso  v.5.0.2 svn rev. 9415
     Shape of augmentation charge: PSQ
     Using radial grid of 1141 points,  4 beta functions with: 
                l(1) =   0
                l(2) =   0
                l(3) =   1
                l(4) =   1
     Q(r) pseudized with 0 coefficients 


     atomic species   valence    mass     pseudopotential
        Si             4.00    28.05500     Si( 1.00)

     24 Sym. Ops. (no inversion) found
          (note: 24 additional sym.ops. were found but ignored
           their fractional translations are incommensurate with FFT grid)


   Cartesian axes

     site n.     atom                  positions (alat units)
         1           Si  tau(   1) = (   0.0000000   0.0000000   0.0000000  )
         2           Si  tau(   2) = (  -0.2500000   0.2500000   0.2500000  )

     number of k points=    10
                       cart. coord. in units 2pi/alat
        k(    1) = (   0.0000000   0.0000000   0.0000000), wk =   0.0160000
        k(    2) = (  -0.2000000   0.2000000  -0.2000000), wk =   0.1280000
        k(    3) = (  -0.4000000   0.4000000  -0.4000000), wk =   0.1280000
        k(    4) = (   0.0000000   0.4000000   0.0000000), wk =   0.0960000
        k(    5) = (  -0.2000000   0.6000000  -0.2000000), wk =   0.3840000
        k(    6) = (   0.6000000  -0.2000000   0.6000000), wk =   0.3840000
        k(    7) = (   0.4000000   0.0000000   0.4000000), wk =   0.1920000
        k(    8) = (   0.0000000   0.8000000   0.0000000), wk =   0.0960000
        k(    9) = (   0.8000000   0.0000000   0.8000000), wk =   0.1920000
        k(   10) = (   0.6000000  -0.2000000   1.0000000), wk =   0.3840000

     Dense  grid:     9377 G-vectors     FFT dimensions: (  30,  30,  30)

     Largest allocated arrays     est. size (Mb)     dimensions
        Kohn-Sham Wavefunctions         0.07 Mb     (    1211,    4)
        NL pseudopotentials             0.30 Mb     (    1211,   16)
        Each V/rho on FFT grid          0.41 Mb     (   27000)
        Each G-vector array             0.07 Mb     (    9377)
        G-vector shells                 0.00 Mb     (     146)
     Largest temporary arrays     est. size (Mb)     dimensions
        Auxiliary wavefunctions         0.30 Mb     (    1211,   16)
        Each subspace H/S matrix        0.00 Mb     (      16,   16)
        Each <psi_i|beta_j> matrix      0.00 Mb     (      16,    4)
        Arrays for rho mixing           3.30 Mb     (   27000,    8)

     Check: negative/imaginary core charge=   -0.000003    0.000000

     Initial potential from superposition of free atoms

     starting charge    7.99888, renormalised to    8.00000
     Starting wfc are    8 randomized atomic wfcs
     Checking if some PAW data can be deallocated... 

     total cpu time spent up to now is        1.1 secs

     per-process dynamical memory:     9.8 Mb

     Self-consistent Calculation

     iteration #  1     ecut=    40.00 Ry     beta=0.70
     Davidson diagonalization with overlap
     ethr =  1.00E-02,  avg # of iterations =  2.0

     Threshold (ethr) on eigenvalues was too large:
     Diagonalizing with lowered threshold

     Davidson diagonalization with overlap
     ethr =  7.36E-04,  avg # of iterations =  1.0

     total cpu time spent up to now is        1.9 secs

     total energy              =     -93.44718767 Ry
     Harris-Foulkes estimate   =     -93.46116336 Ry
     estimated scf accuracy    <       0.05835521 Ry

     iteration #  2     ecut=    40.00 Ry     beta=0.70
     Davidson diagonalization with overlap
     ethr =  7.29E-04,  avg # of iterations =  1.0

     total cpu time spent up to now is        2.3 secs

     total energy              =     -93.44929206 Ry
     Harris-Foulkes estimate   =     -93.44942772 Ry
     estimated scf accuracy    <       0.00254866 Ry

     iteration #  3     ecut=    40.00 Ry     beta=0.70
     Davidson diagonalization with overlap
     ethr =  3.19E-05,  avg # of iterations =  1.7

     total cpu time spent up to now is        2.8 secs

     total energy              =     -93.44954334 Ry
     Harris-Foulkes estimate   =     -93.44955623 Ry
     estimated scf accuracy    <       0.00005091 Ry

     iteration #  4     ecut=    40.00 Ry     beta=0.70
     Davidson diagonalization with overlap
     ethr =  6.36E-07,  avg # of iterations =  3.1

     total cpu time spent up to now is        3.4 secs

     End of self-consistent calculation

          k = 0.0000 0.0000 0.0000 (  1211 PWs)   bands (ev):

    -5.7832   6.1112   6.1112   6.1112

          k =-0.2000 0.2000-0.2000 (  1173 PWs)   bands (ev):

    -5.2701   3.1122   5.5362   5.5362

          k =-0.4000 0.4000-0.4000 (  1161 PWs)   bands (ev):

    -3.9214  -0.1236   4.9915   4.9915

          k = 0.0000 0.4000 0.0000 (  1170 PWs)   bands (ev):

    -5.0935   3.4787   4.6371   4.6371

          k =-0.2000 0.6000-0.2000 (  1160 PWs)   bands (ev):

    -3.9627   0.8212   3.5068   4.1323

          k = 0.6000-0.2000 0.6000 (  1163 PWs)   bands (ev):

    -3.0896  -0.5551   2.7057   4.4111

          k = 0.4000 0.0000 0.4000 (  1165 PWs)   bands (ev):

    -4.4461   1.6463   3.1401   5.2710

          k = 0.0000 0.8000 0.0000 (  1162 PWs)   bands (ev):

    -3.0940  -0.0502   3.4399   3.4399

          k = 0.8000 0.0000 0.8000 (  1152 PWs)   bands (ev):

    -1.9032  -1.2991   2.0896   3.5574

          k = 0.6000-0.2000 1.0000 (  1175 PWs)   bands (ev):

    -2.6609  -0.4307   2.1722   3.1499

     highest occupied level (ev):     6.1112

!    total energy              =     -93.44957394 Ry
     Harris-Foulkes estimate   =     -93.44957417 Ry
     estimated scf accuracy    <       0.00000086 Ry

     total all-electron energy =     -1160.141310 Ry

     The total energy is the sum of the following terms:

     one-electron contribution =       5.64879995 Ry
     hartree contribution      =       1.11802064 Ry
     xc contribution           =     -12.24777736 Ry
     ewald contribution        =     -16.73568328 Ry
     one-center paw contrib.   =     -71.23293389 Ry

     convergence has been achieved in   4 iterations

     Forces acting on atoms (Ry/au):

     atom    1 type  1   force =     0.00000000    0.00000000    0.00000000
     atom    2 type  1   force =    -0.00000000    0.00000000   -0.00000000

     Total force =     0.000000     Total SCF correction =     0.000000


     entering subroutine stress ...

          total   stress  (Ry/bohr**3)                   (kbar)     P=   10.39
   0.00007062   0.00000000   0.00000000         10.39      0.00      0.00
   0.00000000   0.00007062  -0.00000000          0.00     10.39     -0.00
   0.00000000  -0.00000000   0.00007062          0.00     -0.00     10.39


     Writing output data file pwscf.save
 
     init_run     :      0.83s CPU      0.83s WALL (       1 calls)
     electrons    :      2.23s CPU      2.25s WALL (       1 calls)
     forces       :      0.08s CPU      0.08s WALL (       1 calls)
     stress       :      0.23s CPU      0.23s WALL (       1 calls)

     Called by init_run:
     wfcinit      :      0.17s CPU      0.17s WALL (       1 calls)
     potinit      :      0.20s CPU      0.20s WALL (       1 calls)

     Called by electrons:
     c_bands      :      1.11s CPU      1.11s WALL (       5 calls)
     sum_band     :      0.30s CPU      0.30s WALL (       5 calls)
     v_of_rho     :      0.15s CPU      0.15s WALL (       5 calls)
     newd         :      0.07s CPU      0.07s WALL (       5 calls)
     mix_rho      :      0.01s CPU      0.01s WALL (       5 calls)

     Called by c_bands:
     init_us_2    :      0.05s CPU      0.05s WALL (     130 calls)
     cegterg      :      1.02s CPU      1.02s WALL (      50 calls)

     Called by *egterg:
     h_psi        :      1.08s CPU      1.08s WALL (     148 calls)
     s_psi        :      0.02s CPU      0.02s WALL (     148 calls)
     g_psi        :      0.01s CPU      0.01s WALL (      88 calls)
     cdiaghg      :      0.01s CPU      0.01s WALL (     128 calls)

     Called by h_psi:
     add_vuspsi   :      0.03s CPU      0.02s WALL (     148 calls)

     General routines
     calbec       :      0.03s CPU      0.03s WALL (     218 calls)
     fft          :      0.12s CPU      0.12s WALL (      92 calls)
     fftw         :      1.12s CPU      1.12s WALL (    1380 calls)
     davcio       :      0.00s CPU      0.00s WALL (      10 calls)
 
     Parallel routines
     fft_scatter  :      0.07s CPU      0.07s WALL (    1472 calls)

     PAW routines
     PAW_pot      :      0.79s CPU      0.79s WALL (       5 calls)
     PAW_symme    :      0.00s CPU      0.00s WALL (      10 calls)
 
     PWSCF        :     3.75s CPU         3.82s WALL

 
   This run was terminated on:  19:58: 3  28Apr2015            

=------------------------------------------------------------------------------=
   JOB DONE.
=------------------------------------------------------------------------------=
