
     Program PWSCF v.5.1 starts on 28Apr2015 at 20: 5:35 

     This program is part of the open-source Quantum ESPRESSO suite
     for quantum simulation of materials; please cite
         "P. Giannozzi et al., J. Phys.:Condens. Matter 21 395502 (2009);
          URL http://www.quantum-espresso.org", 
     in publications or presentations arising from this work. More details at
     http://www.quantum-espresso.org/quote

     Parallel version (MPI), running on     1 processors
     Waiting for input...
     Reading input from standard input
Warning: card &IONS ignored
Warning: card / ignored
Warning: card &CELL ignored
Warning: card / ignored

     Current dimensions of program PWSCF are:
     Max number of different atomic species (ntypx) = 10
     Max number of k-points (npk) =  40000
     Max angular momentum in pseudopotentials (lmaxx) =  3
               file Si.pbe-n-kjpaw_psl.0.1.UPF: wavefunction(s)  3S renormalized

     Subspace diagonalization in iterative solution of the eigenvalue problem:
     a serial algorithm will be used

 
     G-vector sticks info
     --------------------
     sticks:   dense  smooth     PW     G-vecs:    dense   smooth      PW
     Sum         583     583    187                 9377     9377    1639
 


     bravais-lattice index     =            2
     lattice parameter (alat)  =      10.3000  a.u.
     unit-cell volume          =     273.1818 (a.u.)^3
     number of atoms/cell      =            2
     number of atomic types    =            1
     number of electrons       =         8.00
     number of Kohn-Sham states=            4
     kinetic-energy cutoff     =      40.0000  Ry
     charge density cutoff     =     160.0000  Ry
     convergence threshold     =      1.0E-06
     mixing beta               =       0.7000
     number of iterations used =            8  plain     mixing
     Exchange-correlation      =  SLA  PW   PBX  PBC ( 1  4  3  4 0)

     celldm(1)=  10.300000  celldm(2)=   0.000000  celldm(3)=   0.000000
     celldm(4)=   0.000000  celldm(5)=   0.000000  celldm(6)=   0.000000

     crystal axes: (cart. coord. in units of alat)
               a(1) = (  -0.500000   0.000000   0.500000 )  
               a(2) = (   0.000000   0.500000   0.500000 )  
               a(3) = (  -0.500000   0.500000   0.000000 )  

     reciprocal axes: (cart. coord. in units 2 pi/alat)
               b(1) = ( -1.000000 -1.000000  1.000000 )  
               b(2) = (  1.000000  1.000000  1.000000 )  
               b(3) = ( -1.000000  1.000000 -1.000000 )  


     PseudoPot. # 1 for Si read from file:
     ./Si.pbe-n-kjpaw_psl.0.1.UPF
     MD5 check sum: b9d333a40e496bef61db012f150758bf
     Pseudo is Projector augmented-wave + core cor, Zval =  4.0
     Generated using "atomic" code by A. Dal Corso  v.5.0.2 svn rev. 9415
     Shape of augmentation charge: PSQ
     Using radial grid of 1141 points,  4 beta functions with: 
                l(1) =   0
                l(2) =   0
                l(3) =   1
                l(4) =   1
     Q(r) pseudized with 0 coefficients 


     atomic species   valence    mass     pseudopotential
        Si             4.00    28.05500     Si( 1.00)

     24 Sym. Ops. (no inversion) found
          (note: 24 additional sym.ops. were found but ignored
           their fractional translations are incommensurate with FFT grid)


   Cartesian axes

     site n.     atom                  positions (alat units)
         1           Si  tau(   1) = (   0.0000000   0.0000000   0.0000000  )
         2           Si  tau(   2) = (  -0.2500000   0.2500000   0.2500000  )

     number of k points=    35
                       cart. coord. in units 2pi/alat
        k(    1) = (   0.0000000   0.0000000   0.0000000), wk =   0.0027435
        k(    2) = (  -0.1111111   0.1111111  -0.1111111), wk =   0.0219479
        k(    3) = (  -0.2222222   0.2222222  -0.2222222), wk =   0.0219479
        k(    4) = (  -0.3333333   0.3333333  -0.3333333), wk =   0.0219479
        k(    5) = (  -0.4444444   0.4444444  -0.4444444), wk =   0.0219479
        k(    6) = (   0.0000000   0.2222222   0.0000000), wk =   0.0164609
        k(    7) = (  -0.1111111   0.3333333  -0.1111111), wk =   0.0658436
        k(    8) = (  -0.2222222   0.4444444  -0.2222222), wk =   0.0658436
        k(    9) = (  -0.3333333   0.5555556  -0.3333333), wk =   0.0658436
        k(   10) = (   0.5555556  -0.3333333   0.5555556), wk =   0.0658436
        k(   11) = (   0.4444444  -0.2222222   0.4444444), wk =   0.0658436
        k(   12) = (   0.3333333  -0.1111111   0.3333333), wk =   0.0658436
        k(   13) = (   0.2222222  -0.0000000   0.2222222), wk =   0.0329218
        k(   14) = (   0.0000000   0.4444444   0.0000000), wk =   0.0164609
        k(   15) = (  -0.1111111   0.5555556  -0.1111111), wk =   0.0658436
        k(   16) = (  -0.2222222   0.6666667  -0.2222222), wk =   0.0658436
        k(   17) = (   0.6666667  -0.2222222   0.6666667), wk =   0.0658436
        k(   18) = (   0.5555556  -0.1111111   0.5555556), wk =   0.0658436
        k(   19) = (   0.4444444   0.0000000   0.4444444), wk =   0.0329218
        k(   20) = (   0.0000000   0.6666667   0.0000000), wk =   0.0164609
        k(   21) = (  -0.1111111   0.7777778  -0.1111111), wk =   0.0658436
        k(   22) = (   0.7777778  -0.1111111   0.7777778), wk =   0.0658436
        k(   23) = (   0.6666667  -0.0000000   0.6666667), wk =   0.0329218
        k(   24) = (   0.0000000   0.8888889   0.0000000), wk =   0.0164609
        k(   25) = (   0.8888889   0.0000000   0.8888889), wk =   0.0329218
        k(   26) = (  -0.2222222   0.4444444   0.0000000), wk =   0.0658436
        k(   27) = (  -0.3333333   0.5555556  -0.1111111), wk =   0.1316872
        k(   28) = (   0.5555556  -0.3333333   0.7777778), wk =   0.1316872
        k(   29) = (  -0.2222222   0.6666667   0.0000000), wk =   0.0658436
        k(   30) = (   0.6666667  -0.2222222   0.8888889), wk =   0.1316872
        k(   31) = (   0.5555556  -0.1111111   0.7777778), wk =   0.1316872
        k(   32) = (   0.4444444   0.0000000   0.6666667), wk =   0.0658436
        k(   33) = (   0.7777778  -0.1111111   1.0000000), wk =   0.0658436
        k(   34) = (   0.6666667  -0.0000000   0.8888889), wk =   0.0658436
        k(   35) = (   0.5555556  -0.1111111   1.0000000), wk =   0.0658436

     Dense  grid:     9377 G-vectors     FFT dimensions: (  30,  30,  30)

     Largest allocated arrays     est. size (Mb)     dimensions
        Kohn-Sham Wavefunctions         0.07 Mb     (    1211,    4)
        NL pseudopotentials             0.30 Mb     (    1211,   16)
        Each V/rho on FFT grid          0.41 Mb     (   27000)
        Each G-vector array             0.07 Mb     (    9377)
        G-vector shells                 0.00 Mb     (     146)
     Largest temporary arrays     est. size (Mb)     dimensions
        Auxiliary wavefunctions         0.30 Mb     (    1211,   16)
        Each subspace H/S matrix        0.00 Mb     (      16,   16)
        Each <psi_i|beta_j> matrix      0.00 Mb     (      16,    4)
        Arrays for rho mixing           3.30 Mb     (   27000,    8)

     Check: negative/imaginary core charge=   -0.000003    0.000000

     Initial potential from superposition of free atoms

     starting charge    7.99888, renormalised to    8.00000
     Starting wfc are    8 randomized atomic wfcs
     Checking if some PAW data can be deallocated... 

     total cpu time spent up to now is        1.6 secs

     per-process dynamical memory:    10.9 Mb

     Self-consistent Calculation

     iteration #  1     ecut=    40.00 Ry     beta=0.70
     Davidson diagonalization with overlap
     ethr =  1.00E-02,  avg # of iterations =  2.0

     Threshold (ethr) on eigenvalues was too large:
     Diagonalizing with lowered threshold

     Davidson diagonalization with overlap
     ethr =  7.04E-04,  avg # of iterations =  1.1

     total cpu time spent up to now is        3.6 secs

     total energy              =     -93.45181446 Ry
     Harris-Foulkes estimate   =     -93.46511429 Ry
     estimated scf accuracy    <       0.05598023 Ry

     iteration #  2     ecut=    40.00 Ry     beta=0.70
     Davidson diagonalization with overlap
     ethr =  7.00E-04,  avg # of iterations =  1.0

     total cpu time spent up to now is        4.6 secs

     total energy              =     -93.45384499 Ry
     Harris-Foulkes estimate   =     -93.45398059 Ry
     estimated scf accuracy    <       0.00243448 Ry

     iteration #  3     ecut=    40.00 Ry     beta=0.70
     Davidson diagonalization with overlap
     ethr =  3.04E-05,  avg # of iterations =  2.1

     total cpu time spent up to now is        5.7 secs

     total energy              =     -93.45412754 Ry
     Harris-Foulkes estimate   =     -93.45414577 Ry
     estimated scf accuracy    <       0.00005253 Ry

     iteration #  4     ecut=    40.00 Ry     beta=0.70
     Davidson diagonalization with overlap
     ethr =  6.57E-07,  avg # of iterations =  2.9

     total cpu time spent up to now is        7.1 secs

     total energy              =     -93.45415291 Ry
     Harris-Foulkes estimate   =     -93.45415399 Ry
     estimated scf accuracy    <       0.00000284 Ry

     iteration #  5     ecut=    40.00 Ry     beta=0.70
     Davidson diagonalization with overlap
     ethr =  3.55E-08,  avg # of iterations =  2.7

     total cpu time spent up to now is        8.4 secs

     End of self-consistent calculation

          k = 0.0000 0.0000 0.0000 (  1211 PWs)   bands (ev):

    -5.7948   6.0967   6.0967   6.0967

          k =-0.1111 0.1111-0.1111 (  1185 PWs)   bands (ev):

    -5.6347   4.7535   5.8617   5.8617

          k =-0.2222 0.2222-0.2222 (  1167 PWs)   bands (ev):

    -5.1643   2.6898   5.4407   5.4407

          k =-0.3333 0.3333-0.3333 (  1167 PWs)   bands (ev):

    -4.4309   0.7930   5.1044   5.1044

          k =-0.4444 0.4444-0.4444 (  1164 PWs)   bands (ev):

    -3.6494  -0.5883   4.9292   4.9292

          k = 0.0000 0.2222 0.0000 (  1179 PWs)   bands (ev):

    -5.5809   4.9745   5.4274   5.4274

          k =-0.1111 0.3333-0.1111 (  1173 PWs)   bands (ev):

    -5.2119   3.3036   4.9577   5.0892

          k =-0.2222 0.4444-0.2222 (  1169 PWs)   bands (ev):

    -4.5572   1.4122   4.5865   4.6543

          k =-0.3333 0.5556-0.3333 (  1167 PWs)   bands (ev):

    -3.7399  -0.1628   4.1540   4.5717

          k = 0.5556-0.3333 0.5556 (  1169 PWs)   bands (ev):

    -3.3666  -0.7281   3.8980   4.7096

          k = 0.4444-0.2222 0.4444 (  1162 PWs)   bands (ev):

    -4.0151   0.3087   3.8658   5.0368

          k = 0.3333-0.1111 0.3333 (  1168 PWs)   bands (ev):

    -4.8058   2.0224   4.0988   5.4827

          k = 0.2222-0.0000 0.2222 (  1169 PWs)   bands (ev):

    -5.3703   3.7745   4.7471   5.8733

          k = 0.0000 0.4444 0.0000 (  1182 PWs)   bands (ev):

    -4.9451   3.0708   4.4412   4.4412

          k =-0.1111 0.5556-0.1111 (  1165 PWs)   bands (ev):

    -4.3807   1.7495   3.8199   4.1014

          k =-0.2222 0.6667-0.2222 (  1170 PWs)   bands (ev):

    -3.5895   0.2930   3.0843   4.0036

          k = 0.6667-0.2222 0.6667 (  1163 PWs)   bands (ev):

    -2.9429  -0.6374   2.5689   4.1569

          k = 0.5556-0.1111 0.5556 (  1167 PWs)   bands (ev):

    -3.3501  -0.0664   2.3912   4.5342

          k = 0.4444 0.0000 0.4444 (  1159 PWs)   bands (ev):

    -4.1641   1.1690   2.7756   5.0513

          k = 0.0000 0.6667 0.0000 (  1174 PWs)   bands (ev):

    -3.9071   1.0933   3.7035   3.7035

          k =-0.1111 0.7778-0.1111 (  1173 PWs)   bands (ev):

    -3.1751   0.0511   2.9871   3.5473

          k = 0.7778-0.1111 0.7778 (  1155 PWs)   bands (ev):

    -2.3898  -0.8378   2.0937   3.6534

          k = 0.6667-0.0000 0.6667 (  1141 PWs)   bands (ev):

    -2.5636  -0.6478   1.7349   4.0054

          k = 0.0000 0.8889 0.0000 (  1162 PWs)   bands (ev):

    -2.5055  -0.8057   3.3207   3.3207

          k = 0.8889 0.0000 0.8889 (  1164 PWs)   bands (ev):

    -1.7411  -1.5714   2.7145   3.3578

          k =-0.2222 0.4444 0.0000 (  1172 PWs)   bands (ev):

    -4.7463   2.3127   3.7537   4.9403

          k =-0.3333 0.5556-0.1111 (  1167 PWs)   bands (ev):

    -4.0180   0.8368   3.1486   4.5082

          k = 0.5556-0.3333 0.7778 (  1168 PWs)   bands (ev):

    -3.2308  -0.4373   2.9546   4.1890

          k =-0.2222 0.6667 0.0000 (  1163 PWs)   bands (ev):

    -3.7348   0.7933   3.0485   3.7321

          k = 0.6667-0.2222 0.8889 (  1168 PWs)   bands (ev):

    -2.9166  -0.2805   2.3904   3.4300

          k = 0.5556-0.1111 0.7778 (  1164 PWs)   bands (ev):

    -2.5564  -0.7005   2.0081   3.5411

          k = 0.4444 0.0000 0.6667 (  1166 PWs)   bands (ev):

    -3.2494   0.0929   2.1550   3.9730

          k = 0.7778-0.1111 1.0000 (  1166 PWs)   bands (ev):

    -2.3910  -0.8226   2.7641   2.9724

          k = 0.6667-0.0000 0.8889 (  1163 PWs)   bands (ev):

    -1.8755  -1.2788   2.0508   3.0595

          k = 0.5556-0.1111 1.0000 (  1165 PWs)   bands (ev):

    -2.1189  -0.9681   2.0886   2.7246

     highest occupied level (ev):     6.0967

!    total energy              =     -93.45415383 Ry
     Harris-Foulkes estimate   =     -93.45415391 Ry
     estimated scf accuracy    <       0.00000008 Ry

     total all-electron energy =     -1160.145890 Ry

     The total energy is the sum of the following terms:

     one-electron contribution =       5.64903685 Ry
     hartree contribution      =       1.10758873 Ry
     xc contribution           =     -12.24261742 Ry
     ewald contribution        =     -16.73568328 Ry
     one-center paw contrib.   =     -71.23247871 Ry

     convergence has been achieved in   5 iterations

     Forces acting on atoms (Ry/au):

     atom    1 type  1   force =     0.00000000    0.00000000    0.00000000
     atom    2 type  1   force =     0.00000000    0.00000000    0.00000000

     Total force =     0.000000     Total SCF correction =     0.000000


     entering subroutine stress ...

          total   stress  (Ry/bohr**3)                   (kbar)     P=    7.95
   0.00005405  -0.00000000  -0.00000000          7.95     -0.00     -0.00
  -0.00000000   0.00005405   0.00000000         -0.00      7.95      0.00
  -0.00000000   0.00000000   0.00005405         -0.00      0.00      7.95


     Writing output data file pwscf.save
 
     init_run     :      1.24s CPU      1.26s WALL (       1 calls)
     electrons    :      6.81s CPU      6.87s WALL (       1 calls)
     forces       :      0.11s CPU      0.11s WALL (       1 calls)
     stress       :      0.38s CPU      0.38s WALL (       1 calls)

     Called by init_run:
     wfcinit      :      0.57s CPU      0.58s WALL (       1 calls)
     potinit      :      0.19s CPU      0.20s WALL (       1 calls)

     Called by electrons:
     c_bands      :      4.79s CPU      4.83s WALL (       6 calls)
     sum_band     :      1.00s CPU      1.01s WALL (       6 calls)
     v_of_rho     :      0.18s CPU      0.18s WALL (       6 calls)
     newd         :      0.09s CPU      0.09s WALL (       6 calls)
     mix_rho      :      0.01s CPU      0.01s WALL (       6 calls)

     Called by c_bands:
     init_us_2    :      0.21s CPU      0.22s WALL (     525 calls)
     cegterg      :      4.42s CPU      4.46s WALL (     210 calls)

     Called by *egterg:
     h_psi        :      4.56s CPU      4.59s WALL (     657 calls)
     s_psi        :      0.11s CPU      0.09s WALL (     657 calls)
     g_psi        :      0.04s CPU      0.04s WALL (     412 calls)
     cdiaghg      :      0.05s CPU      0.05s WALL (     587 calls)

     Called by h_psi:
     add_vuspsi   :      0.10s CPU      0.09s WALL (     657 calls)

     General routines
     calbec       :      0.12s CPU      0.14s WALL (     937 calls)
     fft          :      0.13s CPU      0.13s WALL (     105 calls)
     fftw         :      4.73s CPU      4.75s WALL (    5840 calls)
     davcio       :      0.00s CPU      0.00s WALL (      35 calls)
 
     Parallel routines
     fft_scatter  :      0.30s CPU      0.27s WALL (    5945 calls)

     PAW routines
     PAW_pot      :      0.94s CPU      0.95s WALL (       6 calls)
     PAW_symme    :      0.00s CPU      0.00s WALL (      12 calls)
 
     PWSCF        :     8.98s CPU         9.16s WALL

 
   This run was terminated on:  20: 5:44  28Apr2015            

=------------------------------------------------------------------------------=
   JOB DONE.
=------------------------------------------------------------------------------=
