
     Program PWSCF v.5.1 starts on 28Apr2015 at 19:59:41 

     This program is part of the open-source Quantum ESPRESSO suite
     for quantum simulation of materials; please cite
         "P. Giannozzi et al., J. Phys.:Condens. Matter 21 395502 (2009);
          URL http://www.quantum-espresso.org", 
     in publications or presentations arising from this work. More details at
     http://www.quantum-espresso.org/quote

     Parallel version (MPI), running on     1 processors
     Waiting for input...
     Reading input from standard input
Warning: card &IONS ignored
Warning: card / ignored
Warning: card &CELL ignored
Warning: card / ignored

     Current dimensions of program PWSCF are:
     Max number of different atomic species (ntypx) = 10
     Max number of k-points (npk) =  40000
     Max angular momentum in pseudopotentials (lmaxx) =  3
               file Si.pbe-n-kjpaw_psl.0.1.UPF: wavefunction(s)  3S renormalized

     Subspace diagonalization in iterative solution of the eigenvalue problem:
     a serial algorithm will be used

 
     G-vector sticks info
     --------------------
     sticks:   dense  smooth     PW     G-vecs:    dense   smooth      PW
     Sum         745     745    223                13107    13107    2229
 


     bravais-lattice index     =            2
     lattice parameter (alat)  =      10.3000  a.u.
     unit-cell volume          =     273.1818 (a.u.)^3
     number of atoms/cell      =            2
     number of atomic types    =            1
     number of electrons       =         8.00
     number of Kohn-Sham states=            4
     kinetic-energy cutoff     =      50.0000  Ry
     charge density cutoff     =     200.0000  Ry
     convergence threshold     =      1.0E-06
     mixing beta               =       0.7000
     number of iterations used =            8  plain     mixing
     Exchange-correlation      =  SLA  PW   PBX  PBC ( 1  4  3  4 0)

     celldm(1)=  10.300000  celldm(2)=   0.000000  celldm(3)=   0.000000
     celldm(4)=   0.000000  celldm(5)=   0.000000  celldm(6)=   0.000000

     crystal axes: (cart. coord. in units of alat)
               a(1) = (  -0.500000   0.000000   0.500000 )  
               a(2) = (   0.000000   0.500000   0.500000 )  
               a(3) = (  -0.500000   0.500000   0.000000 )  

     reciprocal axes: (cart. coord. in units 2 pi/alat)
               b(1) = ( -1.000000 -1.000000  1.000000 )  
               b(2) = (  1.000000  1.000000  1.000000 )  
               b(3) = ( -1.000000  1.000000 -1.000000 )  


     PseudoPot. # 1 for Si read from file:
     ./Si.pbe-n-kjpaw_psl.0.1.UPF
     MD5 check sum: b9d333a40e496bef61db012f150758bf
     Pseudo is Projector augmented-wave + core cor, Zval =  4.0
     Generated using "atomic" code by A. Dal Corso  v.5.0.2 svn rev. 9415
     Shape of augmentation charge: PSQ
     Using radial grid of 1141 points,  4 beta functions with: 
                l(1) =   0
                l(2) =   0
                l(3) =   1
                l(4) =   1
     Q(r) pseudized with 0 coefficients 


     atomic species   valence    mass     pseudopotential
        Si             4.00    28.05500     Si( 1.00)

     48 Sym. Ops., with inversion, found (24 have fractional translation)



   Cartesian axes

     site n.     atom                  positions (alat units)
         1           Si  tau(   1) = (   0.0000000   0.0000000   0.0000000  )
         2           Si  tau(   2) = (  -0.2500000   0.2500000   0.2500000  )

     number of k points=    16
                       cart. coord. in units 2pi/alat
        k(    1) = (   0.0000000   0.0000000   0.0000000), wk =   0.0092593
        k(    2) = (  -0.1666667   0.1666667  -0.1666667), wk =   0.0740741
        k(    3) = (  -0.3333333   0.3333333  -0.3333333), wk =   0.0740741
        k(    4) = (   0.5000000  -0.5000000   0.5000000), wk =   0.0370370
        k(    5) = (   0.0000000   0.3333333   0.0000000), wk =   0.0555556
        k(    6) = (  -0.1666667   0.5000000  -0.1666667), wk =   0.2222222
        k(    7) = (   0.6666667  -0.3333333   0.6666667), wk =   0.2222222
        k(    8) = (   0.5000000  -0.1666667   0.5000000), wk =   0.2222222
        k(    9) = (   0.3333333   0.0000000   0.3333333), wk =   0.1111111
        k(   10) = (   0.0000000   0.6666667   0.0000000), wk =   0.0555556
        k(   11) = (   0.8333333  -0.1666667   0.8333333), wk =   0.2222222
        k(   12) = (   0.6666667  -0.0000000   0.6666667), wk =   0.1111111
        k(   13) = (   0.0000000  -1.0000000   0.0000000), wk =   0.0277778
        k(   14) = (   0.6666667  -0.3333333   1.0000000), wk =   0.2222222
        k(   15) = (   0.5000000  -0.1666667   0.8333333), wk =   0.2222222
        k(   16) = (  -0.3333333  -1.0000000   0.0000000), wk =   0.1111111

     Dense  grid:    13107 G-vectors     FFT dimensions: (  36,  36,  36)

     Largest allocated arrays     est. size (Mb)     dimensions
        Kohn-Sham Wavefunctions         0.10 Mb     (    1660,    4)
        NL pseudopotentials             0.41 Mb     (    1660,   16)
        Each V/rho on FFT grid          0.71 Mb     (   46656)
        Each G-vector array             0.10 Mb     (   13107)
        G-vector shells                 0.00 Mb     (     181)
     Largest temporary arrays     est. size (Mb)     dimensions
        Auxiliary wavefunctions         0.41 Mb     (    1660,   16)
        Each subspace H/S matrix        0.00 Mb     (      16,   16)
        Each <psi_i|beta_j> matrix      0.00 Mb     (      16,    4)
        Arrays for rho mixing           5.70 Mb     (   46656,    8)

     Check: negative/imaginary core charge=   -0.000001    0.000000

     Initial potential from superposition of free atoms

     starting charge    7.99888, renormalised to    8.00000
     Starting wfc are    8 randomized atomic wfcs
     Checking if some PAW data can be deallocated... 

     total cpu time spent up to now is        1.5 secs

     per-process dynamical memory:    13.6 Mb

     Self-consistent Calculation

     iteration #  1     ecut=    50.00 Ry     beta=0.70
     Davidson diagonalization with overlap
     ethr =  1.00E-02,  avg # of iterations =  2.0

     Threshold (ethr) on eigenvalues was too large:
     Diagonalizing with lowered threshold

     Davidson diagonalization with overlap
     ethr =  7.17E-04,  avg # of iterations =  1.1

     total cpu time spent up to now is        3.1 secs

     total energy              =     -93.45017791 Ry
     Harris-Foulkes estimate   =     -93.46374082 Ry
     estimated scf accuracy    <       0.05689550 Ry

     iteration #  2     ecut=    50.00 Ry     beta=0.70
     Davidson diagonalization with overlap
     ethr =  7.11E-04,  avg # of iterations =  1.0

     total cpu time spent up to now is        3.9 secs

     total energy              =     -93.45222689 Ry
     Harris-Foulkes estimate   =     -93.45236424 Ry
     estimated scf accuracy    <       0.00248578 Ry

     iteration #  3     ecut=    50.00 Ry     beta=0.70
     Davidson diagonalization with overlap
     ethr =  3.11E-05,  avg # of iterations =  1.9

     total cpu time spent up to now is        4.7 secs

     total energy              =     -93.45248717 Ry
     Harris-Foulkes estimate   =     -93.45250210 Ry
     estimated scf accuracy    <       0.00005081 Ry

     iteration #  4     ecut=    50.00 Ry     beta=0.70
     Davidson diagonalization with overlap
     ethr =  6.35E-07,  avg # of iterations =  3.1

     total cpu time spent up to now is        5.9 secs

     total energy              =     -93.45251608 Ry
     Harris-Foulkes estimate   =     -93.45251653 Ry
     estimated scf accuracy    <       0.00000133 Ry

     iteration #  5     ecut=    50.00 Ry     beta=0.70
     Davidson diagonalization with overlap
     ethr =  1.67E-08,  avg # of iterations =  3.0

     total cpu time spent up to now is        6.9 secs

     End of self-consistent calculation

          k = 0.0000 0.0000 0.0000 (  1639 PWs)   bands (ev):

    -5.7892   6.1038   6.1038   6.1038

          k =-0.1667 0.1667-0.1667 (  1627 PWs)   bands (ev):

    -5.4311   3.7291   5.6575   5.6575

          k =-0.3333 0.3333-0.3333 (  1634 PWs)   bands (ev):

    -4.4251   0.7988   5.1108   5.1108

          k = 0.5000-0.5000 0.5000 (  1622 PWs)   bands (ev):

    -3.4830  -0.8189   4.9135   4.9135

          k = 0.0000 0.3333 0.0000 (  1623 PWs)   bands (ev):

    -5.3092   4.0544   4.9235   4.9235

          k =-0.1667 0.5000-0.1667 (  1633 PWs)   bands (ev):

    -4.5012   1.6811   4.1249   4.3745

          k = 0.6667-0.3333 0.6667 (  1641 PWs)   bands (ev):

    -3.3235  -0.4643   3.3471   4.3433

          k = 0.5000-0.1667 0.5000 (  1628 PWs)   bands (ev):

    -3.7034   0.1277   3.0817   4.8170

          k = 0.3333 0.0000 0.3333 (  1624 PWs)   bands (ev):

    -4.8480   2.3935   3.7170   5.5420

          k = 0.0000 0.6667 0.0000 (  1640 PWs)   bands (ev):

    -3.9013   1.0999   3.7091   3.7091

          k = 0.8333-0.1667 0.8333 (  1633 PWs)   bands (ev):

    -2.7489  -0.4410   2.5107   3.5733

          k = 0.6667-0.0000 0.6667 (  1624 PWs)   bands (ev):

    -2.5574  -0.6416   1.7396   4.0112

          k = 0.0000-1.0000 0.0000 (  1660 PWs)   bands (ev):

    -1.6813  -1.6813   3.2778   3.2778

          k = 0.6667-0.3333 1.0000 (  1632 PWs)   bands (ev):

    -3.5206   0.4746   2.5716   3.8327

          k = 0.5000-0.1667 0.8333 (  1640 PWs)   bands (ev):

    -2.5478  -0.7111   2.1341   3.3724

          k =-0.3333-1.0000 0.0000 (  1626 PWs)   bands (ev):

    -1.5648  -1.5648   2.4990   2.4990

     highest occupied level (ev):     6.1038

!    total energy              =     -93.45251669 Ry
     Harris-Foulkes estimate   =     -93.45251674 Ry
     estimated scf accuracy    <       0.00000005 Ry

     total all-electron energy =     -1160.144253 Ry

     The total energy is the sum of the following terms:

     one-electron contribution =       5.64852189 Ry
     hartree contribution      =       1.11173026 Ry
     xc contribution           =     -12.24455479 Ry
     ewald contribution        =     -16.73568328 Ry
     one-center paw contrib.   =     -71.23253077 Ry

     convergence has been achieved in   5 iterations

     Forces acting on atoms (Ry/au):

     atom    1 type  1   force =     0.00000000    0.00000000    0.00000000
     atom    2 type  1   force =    -0.00000000   -0.00000000   -0.00000000

     Total force =     0.000000     Total SCF correction =     0.000000


     entering subroutine stress ...

          total   stress  (Ry/bohr**3)                   (kbar)     P=    8.48
   0.00005762   0.00000000   0.00000000          8.48      0.00      0.00
   0.00000000   0.00005762   0.00000000          0.00      8.48      0.00
   0.00000000   0.00000000   0.00005762          0.00      0.00      8.48


     Writing output data file pwscf.save
 
     init_run     :      1.16s CPU      1.17s WALL (       1 calls)
     electrons    :      5.44s CPU      5.47s WALL (       1 calls)
     forces       :      0.13s CPU      0.13s WALL (       1 calls)
     stress       :      0.39s CPU      0.39s WALL (       1 calls)

     Called by init_run:
     wfcinit      :      0.41s CPU      0.42s WALL (       1 calls)
     potinit      :      0.22s CPU      0.22s WALL (       1 calls)

     Called by electrons:
     c_bands      :      3.43s CPU      3.45s WALL (       6 calls)
     sum_band     :      0.83s CPU      0.84s WALL (       6 calls)
     v_of_rho     :      0.30s CPU      0.30s WALL (       6 calls)
     newd         :      0.13s CPU      0.13s WALL (       6 calls)
     mix_rho      :      0.02s CPU      0.02s WALL (       6 calls)

     Called by c_bands:
     init_us_2    :      0.13s CPU      0.14s WALL (     240 calls)
     cegterg      :      3.20s CPU      3.21s WALL (      96 calls)

     Called by *egterg:
     h_psi        :      3.33s CPU      3.34s WALL (     304 calls)
     s_psi        :      0.06s CPU      0.06s WALL (     304 calls)
     g_psi        :      0.02s CPU      0.03s WALL (     192 calls)
     cdiaghg      :      0.04s CPU      0.03s WALL (     272 calls)

     Called by h_psi:
     add_vuspsi   :      0.05s CPU      0.06s WALL (     304 calls)

     General routines
     calbec       :      0.09s CPU      0.09s WALL (     432 calls)
     fft          :      0.20s CPU      0.21s WALL (     105 calls)
     fftw         :      3.41s CPU      3.41s WALL (    2692 calls)
     davcio       :      0.00s CPU      0.00s WALL (      16 calls)
 
     Parallel routines
     fft_scatter  :      0.25s CPU      0.25s WALL (    2797 calls)

     PAW routines
     PAW_pot      :      0.95s CPU      0.95s WALL (       6 calls)
     PAW_symme    :      0.00s CPU      0.00s WALL (      12 calls)
 
     PWSCF        :     7.53s CPU         7.63s WALL

 
   This run was terminated on:  19:59:49  28Apr2015            

=------------------------------------------------------------------------------=
   JOB DONE.
=------------------------------------------------------------------------------=
