
     Program PWSCF v.5.1 starts on 28Apr2015 at 20: 5:57 

     This program is part of the open-source Quantum ESPRESSO suite
     for quantum simulation of materials; please cite
         "P. Giannozzi et al., J. Phys.:Condens. Matter 21 395502 (2009);
          URL http://www.quantum-espresso.org", 
     in publications or presentations arising from this work. More details at
     http://www.quantum-espresso.org/quote

     Parallel version (MPI), running on     1 processors
     Waiting for input...
     Reading input from standard input
Warning: card &IONS ignored
Warning: card / ignored
Warning: card &CELL ignored
Warning: card / ignored

     Current dimensions of program PWSCF are:
     Max number of different atomic species (ntypx) = 10
     Max number of k-points (npk) =  40000
     Max angular momentum in pseudopotentials (lmaxx) =  3
               file Si.pbe-n-kjpaw_psl.0.1.UPF: wavefunction(s)  3S renormalized

     Subspace diagonalization in iterative solution of the eigenvalue problem:
     a serial algorithm will be used

 
     G-vector sticks info
     --------------------
     sticks:   dense  smooth     PW     G-vecs:    dense   smooth      PW
     Sum         871     871    265                17153    17153    2837
 


     bravais-lattice index     =            2
     lattice parameter (alat)  =      10.3000  a.u.
     unit-cell volume          =     273.1818 (a.u.)^3
     number of atoms/cell      =            2
     number of atomic types    =            1
     number of electrons       =         8.00
     number of Kohn-Sham states=            4
     kinetic-energy cutoff     =      60.0000  Ry
     charge density cutoff     =     240.0000  Ry
     convergence threshold     =      1.0E-06
     mixing beta               =       0.7000
     number of iterations used =            8  plain     mixing
     Exchange-correlation      =  SLA  PW   PBX  PBC ( 1  4  3  4 0)

     celldm(1)=  10.300000  celldm(2)=   0.000000  celldm(3)=   0.000000
     celldm(4)=   0.000000  celldm(5)=   0.000000  celldm(6)=   0.000000

     crystal axes: (cart. coord. in units of alat)
               a(1) = (  -0.500000   0.000000   0.500000 )  
               a(2) = (   0.000000   0.500000   0.500000 )  
               a(3) = (  -0.500000   0.500000   0.000000 )  

     reciprocal axes: (cart. coord. in units 2 pi/alat)
               b(1) = ( -1.000000 -1.000000  1.000000 )  
               b(2) = (  1.000000  1.000000  1.000000 )  
               b(3) = ( -1.000000  1.000000 -1.000000 )  


     PseudoPot. # 1 for Si read from file:
     ./Si.pbe-n-kjpaw_psl.0.1.UPF
     MD5 check sum: b9d333a40e496bef61db012f150758bf
     Pseudo is Projector augmented-wave + core cor, Zval =  4.0
     Generated using "atomic" code by A. Dal Corso  v.5.0.2 svn rev. 9415
     Shape of augmentation charge: PSQ
     Using radial grid of 1141 points,  4 beta functions with: 
                l(1) =   0
                l(2) =   0
                l(3) =   1
                l(4) =   1
     Q(r) pseudized with 0 coefficients 


     atomic species   valence    mass     pseudopotential
        Si             4.00    28.05500     Si( 1.00)

     48 Sym. Ops., with inversion, found (24 have fractional translation)



   Cartesian axes

     site n.     atom                  positions (alat units)
         1           Si  tau(   1) = (   0.0000000   0.0000000   0.0000000  )
         2           Si  tau(   2) = (  -0.2500000   0.2500000   0.2500000  )

     number of k points=    35
                       cart. coord. in units 2pi/alat
        k(    1) = (   0.0000000   0.0000000   0.0000000), wk =   0.0027435
        k(    2) = (  -0.1111111   0.1111111  -0.1111111), wk =   0.0219479
        k(    3) = (  -0.2222222   0.2222222  -0.2222222), wk =   0.0219479
        k(    4) = (  -0.3333333   0.3333333  -0.3333333), wk =   0.0219479
        k(    5) = (  -0.4444444   0.4444444  -0.4444444), wk =   0.0219479
        k(    6) = (   0.0000000   0.2222222   0.0000000), wk =   0.0164609
        k(    7) = (  -0.1111111   0.3333333  -0.1111111), wk =   0.0658436
        k(    8) = (  -0.2222222   0.4444444  -0.2222222), wk =   0.0658436
        k(    9) = (  -0.3333333   0.5555556  -0.3333333), wk =   0.0658436
        k(   10) = (   0.5555556  -0.3333333   0.5555556), wk =   0.0658436
        k(   11) = (   0.4444444  -0.2222222   0.4444444), wk =   0.0658436
        k(   12) = (   0.3333333  -0.1111111   0.3333333), wk =   0.0658436
        k(   13) = (   0.2222222  -0.0000000   0.2222222), wk =   0.0329218
        k(   14) = (   0.0000000   0.4444444   0.0000000), wk =   0.0164609
        k(   15) = (  -0.1111111   0.5555556  -0.1111111), wk =   0.0658436
        k(   16) = (  -0.2222222   0.6666667  -0.2222222), wk =   0.0658436
        k(   17) = (   0.6666667  -0.2222222   0.6666667), wk =   0.0658436
        k(   18) = (   0.5555556  -0.1111111   0.5555556), wk =   0.0658436
        k(   19) = (   0.4444444   0.0000000   0.4444444), wk =   0.0329218
        k(   20) = (   0.0000000   0.6666667   0.0000000), wk =   0.0164609
        k(   21) = (  -0.1111111   0.7777778  -0.1111111), wk =   0.0658436
        k(   22) = (   0.7777778  -0.1111111   0.7777778), wk =   0.0658436
        k(   23) = (   0.6666667  -0.0000000   0.6666667), wk =   0.0329218
        k(   24) = (   0.0000000   0.8888889   0.0000000), wk =   0.0164609
        k(   25) = (   0.8888889   0.0000000   0.8888889), wk =   0.0329218
        k(   26) = (  -0.2222222   0.4444444   0.0000000), wk =   0.0658436
        k(   27) = (  -0.3333333   0.5555556  -0.1111111), wk =   0.1316872
        k(   28) = (   0.5555556  -0.3333333   0.7777778), wk =   0.1316872
        k(   29) = (  -0.2222222   0.6666667   0.0000000), wk =   0.0658436
        k(   30) = (   0.6666667  -0.2222222   0.8888889), wk =   0.1316872
        k(   31) = (   0.5555556  -0.1111111   0.7777778), wk =   0.1316872
        k(   32) = (   0.4444444   0.0000000   0.6666667), wk =   0.0658436
        k(   33) = (   0.7777778  -0.1111111   1.0000000), wk =   0.0658436
        k(   34) = (   0.6666667  -0.0000000   0.8888889), wk =   0.0658436
        k(   35) = (   0.5555556  -0.1111111   1.0000000), wk =   0.0658436

     Dense  grid:    17153 G-vectors     FFT dimensions: (  36,  36,  36)

     Largest allocated arrays     est. size (Mb)     dimensions
        Kohn-Sham Wavefunctions         0.13 Mb     (    2168,    4)
        NL pseudopotentials             0.53 Mb     (    2168,   16)
        Each V/rho on FFT grid          0.71 Mb     (   46656)
        Each G-vector array             0.13 Mb     (   17153)
        G-vector shells                 0.00 Mb     (     217)
     Largest temporary arrays     est. size (Mb)     dimensions
        Auxiliary wavefunctions         0.53 Mb     (    2168,   16)
        Each subspace H/S matrix        0.00 Mb     (      16,   16)
        Each <psi_i|beta_j> matrix      0.00 Mb     (      16,    4)
        Arrays for rho mixing           5.70 Mb     (   46656,    8)

     Initial potential from superposition of free atoms

     starting charge    7.99888, renormalised to    8.00000
     Starting wfc are    8 randomized atomic wfcs
     Checking if some PAW data can be deallocated... 

     total cpu time spent up to now is        2.5 secs

     per-process dynamical memory:    17.1 Mb

     Self-consistent Calculation

     iteration #  1     ecut=    60.00 Ry     beta=0.70
     Davidson diagonalization with overlap
     ethr =  1.00E-02,  avg # of iterations =  2.0

     Threshold (ethr) on eigenvalues was too large:
     Diagonalizing with lowered threshold

     Davidson diagonalization with overlap
     ethr =  7.07E-04,  avg # of iterations =  1.0

     total cpu time spent up to now is        5.8 secs

     total energy              =     -93.45183010 Ry
     Harris-Foulkes estimate   =     -93.46510244 Ry
     estimated scf accuracy    <       0.05583031 Ry

     iteration #  2     ecut=    60.00 Ry     beta=0.70
     Davidson diagonalization with overlap
     ethr =  6.98E-04,  avg # of iterations =  1.0

     total cpu time spent up to now is        7.3 secs

     total energy              =     -93.45384266 Ry
     Harris-Foulkes estimate   =     -93.45398109 Ry
     estimated scf accuracy    <       0.00245226 Ry

     iteration #  3     ecut=    60.00 Ry     beta=0.70
     Davidson diagonalization with overlap
     ethr =  3.07E-05,  avg # of iterations =  2.0

     total cpu time spent up to now is        9.0 secs

     total energy              =     -93.45412504 Ry
     Harris-Foulkes estimate   =     -93.45414377 Ry
     estimated scf accuracy    <       0.00005264 Ry

     iteration #  4     ecut=    60.00 Ry     beta=0.70
     Davidson diagonalization with overlap
     ethr =  6.58E-07,  avg # of iterations =  3.0

     total cpu time spent up to now is       11.3 secs

     total energy              =     -93.45415153 Ry
     Harris-Foulkes estimate   =     -93.45415265 Ry
     estimated scf accuracy    <       0.00000290 Ry

     iteration #  5     ecut=    60.00 Ry     beta=0.70
     Davidson diagonalization with overlap
     ethr =  3.62E-08,  avg # of iterations =  2.8

     total cpu time spent up to now is       13.4 secs

     End of self-consistent calculation

          k = 0.0000 0.0000 0.0000 (  2109 PWs)   bands (ev):

    -5.7950   6.0965   6.0965   6.0965

          k =-0.1111 0.1111-0.1111 (  2124 PWs)   bands (ev):

    -5.6349   4.7532   5.8614   5.8614

          k =-0.2222 0.2222-0.2222 (  2133 PWs)   bands (ev):

    -5.1646   2.6896   5.4405   5.4405

          k =-0.3333 0.3333-0.3333 (  2138 PWs)   bands (ev):

    -4.4311   0.7928   5.1042   5.1042

          k =-0.4444 0.4444-0.4444 (  2141 PWs)   bands (ev):

    -3.6496  -0.5885   4.9290   4.9290

          k = 0.0000 0.2222 0.0000 (  2133 PWs)   bands (ev):

    -5.5811   4.9742   5.4271   5.4271

          k =-0.1111 0.3333-0.1111 (  2136 PWs)   bands (ev):

    -5.2121   3.3034   4.9575   5.0890

          k =-0.2222 0.4444-0.2222 (  2138 PWs)   bands (ev):

    -4.5574   1.4120   4.5863   4.6541

          k =-0.3333 0.5556-0.3333 (  2133 PWs)   bands (ev):

    -3.7401  -0.1630   4.1538   4.5716

          k = 0.5556-0.3333 0.5556 (  2139 PWs)   bands (ev):

    -3.3668  -0.7282   3.8978   4.7095

          k = 0.4444-0.2222 0.4444 (  2143 PWs)   bands (ev):

    -4.0153   0.3085   3.8656   5.0366

          k = 0.3333-0.1111 0.3333 (  2139 PWs)   bands (ev):

    -4.8060   2.0222   4.0986   5.4825

          k = 0.2222-0.0000 0.2222 (  2127 PWs)   bands (ev):

    -5.3705   3.7743   4.7469   5.8731

          k = 0.0000 0.4444 0.0000 (  2137 PWs)   bands (ev):

    -4.9453   3.0705   4.4410   4.4410

          k =-0.1111 0.5556-0.1111 (  2138 PWs)   bands (ev):

    -4.3809   1.7493   3.8197   4.1012

          k =-0.2222 0.6667-0.2222 (  2135 PWs)   bands (ev):

    -3.5897   0.2927   3.0841   4.0034

          k = 0.6667-0.2222 0.6667 (  2144 PWs)   bands (ev):

    -2.9432  -0.6376   2.5687   4.1567

          k = 0.5556-0.1111 0.5556 (  2143 PWs)   bands (ev):

    -3.3503  -0.0666   2.3910   4.5340

          k = 0.4444 0.0000 0.4444 (  2133 PWs)   bands (ev):

    -4.1643   1.1687   2.7754   5.0511

          k = 0.0000 0.6667 0.0000 (  2129 PWs)   bands (ev):

    -3.9073   1.0930   3.7033   3.7033

          k =-0.1111 0.7778-0.1111 (  2143 PWs)   bands (ev):

    -3.1753   0.0509   2.9869   3.5471

          k = 0.7778-0.1111 0.7778 (  2151 PWs)   bands (ev):

    -2.3900  -0.8381   2.0935   3.6532

          k = 0.6667-0.0000 0.6667 (  2165 PWs)   bands (ev):

    -2.5638  -0.6480   1.7347   4.0052

          k = 0.0000 0.8889 0.0000 (  2156 PWs)   bands (ev):

    -2.5057  -0.8059   3.3205   3.3205

          k = 0.8889 0.0000 0.8889 (  2149 PWs)   bands (ev):

    -1.7413  -1.5716   2.7143   3.3577

          k =-0.2222 0.4444 0.0000 (  2140 PWs)   bands (ev):

    -4.7465   2.3124   3.7536   4.9401

          k =-0.3333 0.5556-0.1111 (  2132 PWs)   bands (ev):

    -4.0182   0.8365   3.1484   4.5080

          k = 0.5556-0.3333 0.7778 (  2154 PWs)   bands (ev):

    -3.2310  -0.4376   2.9544   4.1888

          k =-0.2222 0.6667 0.0000 (  2138 PWs)   bands (ev):

    -3.7351   0.7930   3.0483   3.7319

          k = 0.6667-0.2222 0.8889 (  2143 PWs)   bands (ev):

    -2.9168  -0.2807   2.3903   3.4299

          k = 0.5556-0.1111 0.7778 (  2157 PWs)   bands (ev):

    -2.5567  -0.7007   2.0080   3.5409

          k = 0.4444 0.0000 0.6667 (  2146 PWs)   bands (ev):

    -3.2496   0.0927   2.1548   3.9729

          k = 0.7778-0.1111 1.0000 (  2147 PWs)   bands (ev):

    -2.3913  -0.8228   2.7640   2.9722

          k = 0.6667-0.0000 0.8889 (  2168 PWs)   bands (ev):

    -1.8758  -1.2790   2.0506   3.0593

          k = 0.5556-0.1111 1.0000 (  2165 PWs)   bands (ev):

    -2.1192  -0.9684   2.0884   2.7244

     highest occupied level (ev):     6.0965

!    total energy              =     -93.45415246 Ry
     Harris-Foulkes estimate   =     -93.45415255 Ry
     estimated scf accuracy    <       0.00000009 Ry

     total all-electron energy =     -1160.145889 Ry

     The total energy is the sum of the following terms:

     one-electron contribution =       5.64886954 Ry
     hartree contribution      =       1.10761940 Ry
     xc contribution           =     -12.24249289 Ry
     ewald contribution        =     -16.73568325 Ry
     one-center paw contrib.   =     -71.23246527 Ry

     convergence has been achieved in   5 iterations

     Forces acting on atoms (Ry/au):

     atom    1 type  1   force =     0.00000000    0.00000000   -0.00000000
     atom    2 type  1   force =     0.00000000    0.00000000    0.00000000

     Total force =     0.000000     Total SCF correction =     0.000000


     entering subroutine stress ...

          total   stress  (Ry/bohr**3)                   (kbar)     P=    7.87
   0.00005350   0.00000000   0.00000000          7.87      0.00      0.00
   0.00000000   0.00005350   0.00000000          0.00      7.87      0.00
   0.00000000  -0.00000000   0.00005350          0.00     -0.00      7.87


     Writing output data file pwscf.save
 
     init_run     :      1.77s CPU      2.16s WALL (       1 calls)
     electrons    :     10.82s CPU     10.89s WALL (       1 calls)
     forces       :      0.20s CPU      0.20s WALL (       1 calls)
     stress       :      0.71s CPU      0.71s WALL (       1 calls)

     Called by init_run:
     wfcinit      :      0.95s CPU      0.96s WALL (       1 calls)
     potinit      :      0.22s CPU      0.22s WALL (       1 calls)

     Called by electrons:
     c_bands      :      7.85s CPU      7.91s WALL (       6 calls)
     sum_band     :      1.73s CPU      1.75s WALL (       6 calls)
     v_of_rho     :      0.31s CPU      0.31s WALL (       6 calls)
     newd         :      0.17s CPU      0.17s WALL (       6 calls)
     mix_rho      :      0.03s CPU      0.03s WALL (       6 calls)

     Called by c_bands:
     init_us_2    :      0.40s CPU      0.40s WALL (     525 calls)
     cegterg      :      7.18s CPU      7.23s WALL (     210 calls)

     Called by *egterg:
     h_psi        :      7.35s CPU      7.39s WALL (     656 calls)
     s_psi        :      0.18s CPU      0.16s WALL (     656 calls)
     g_psi        :      0.05s CPU      0.07s WALL (     411 calls)
     cdiaghg      :      0.06s CPU      0.05s WALL (     586 calls)

     Called by h_psi:
     add_vuspsi   :      0.14s CPU      0.17s WALL (     656 calls)

     General routines
     calbec       :      0.25s CPU      0.25s WALL (     936 calls)
     fft          :      0.22s CPU      0.22s WALL (     105 calls)
     fftw         :      7.40s CPU      7.47s WALL (    5828 calls)
     davcio       :      0.00s CPU      0.00s WALL (      35 calls)
 
     Parallel routines
     fft_scatter  :      0.56s CPU      0.55s WALL (    5933 calls)

     PAW routines
     PAW_pot      :      0.94s CPU      0.95s WALL (       6 calls)
     PAW_symme    :      0.00s CPU      0.00s WALL (      12 calls)
 
     PWSCF        :    13.95s CPU        14.58s WALL

 
   This run was terminated on:  20: 6:12  28Apr2015            

=------------------------------------------------------------------------------=
   JOB DONE.
=------------------------------------------------------------------------------=
