
     Program PWSCF v.5.1 starts on 28Apr2015 at 20: 9:11 

     This program is part of the open-source Quantum ESPRESSO suite
     for quantum simulation of materials; please cite
         "P. Giannozzi et al., J. Phys.:Condens. Matter 21 395502 (2009);
          URL http://www.quantum-espresso.org", 
     in publications or presentations arising from this work. More details at
     http://www.quantum-espresso.org/quote

     Parallel version (MPI), running on     1 processors
     Waiting for input...
     Reading input from standard input
Warning: card &IONS ignored
Warning: card / ignored
Warning: card &CELL ignored
Warning: card / ignored

     Current dimensions of program PWSCF are:
     Max number of different atomic species (ntypx) = 10
     Max number of k-points (npk) =  40000
     Max angular momentum in pseudopotentials (lmaxx) =  3
               file Si.pbe-n-kjpaw_psl.0.1.UPF: wavefunction(s)  3S renormalized

     Subspace diagonalization in iterative solution of the eigenvalue problem:
     a serial algorithm will be used

 
     G-vector sticks info
     --------------------
     sticks:   dense  smooth     PW     G-vecs:    dense   smooth      PW
     Sum        1027    1027    313                21595    21595    3527
 


     bravais-lattice index     =            2
     lattice parameter (alat)  =      10.3000  a.u.
     unit-cell volume          =     273.1818 (a.u.)^3
     number of atoms/cell      =            2
     number of atomic types    =            1
     number of electrons       =         8.00
     number of Kohn-Sham states=            4
     kinetic-energy cutoff     =      70.0000  Ry
     charge density cutoff     =     280.0000  Ry
     convergence threshold     =      1.0E-06
     mixing beta               =       0.7000
     number of iterations used =            8  plain     mixing
     Exchange-correlation      =  SLA  PW   PBX  PBC ( 1  4  3  4 0)

     celldm(1)=  10.300000  celldm(2)=   0.000000  celldm(3)=   0.000000
     celldm(4)=   0.000000  celldm(5)=   0.000000  celldm(6)=   0.000000

     crystal axes: (cart. coord. in units of alat)
               a(1) = (  -0.500000   0.000000   0.500000 )  
               a(2) = (   0.000000   0.500000   0.500000 )  
               a(3) = (  -0.500000   0.500000   0.000000 )  

     reciprocal axes: (cart. coord. in units 2 pi/alat)
               b(1) = ( -1.000000 -1.000000  1.000000 )  
               b(2) = (  1.000000  1.000000  1.000000 )  
               b(3) = ( -1.000000  1.000000 -1.000000 )  


     PseudoPot. # 1 for Si read from file:
     ./Si.pbe-n-kjpaw_psl.0.1.UPF
     MD5 check sum: b9d333a40e496bef61db012f150758bf
     Pseudo is Projector augmented-wave + core cor, Zval =  4.0
     Generated using "atomic" code by A. Dal Corso  v.5.0.2 svn rev. 9415
     Shape of augmentation charge: PSQ
     Using radial grid of 1141 points,  4 beta functions with: 
                l(1) =   0
                l(2) =   0
                l(3) =   1
                l(4) =   1
     Q(r) pseudized with 0 coefficients 


     atomic species   valence    mass     pseudopotential
        Si             4.00    28.05500     Si( 1.00)

     48 Sym. Ops., with inversion, found (24 have fractional translation)



   Cartesian axes

     site n.     atom                  positions (alat units)
         1           Si  tau(   1) = (   0.0000000   0.0000000   0.0000000  )
         2           Si  tau(   2) = (  -0.2500000   0.2500000   0.2500000  )

     number of k points=    47
                       cart. coord. in units 2pi/alat
        k(    1) = (   0.0000000   0.0000000   0.0000000), wk =   0.0020000
        k(    2) = (  -0.1000000   0.1000000  -0.1000000), wk =   0.0160000
        k(    3) = (  -0.2000000   0.2000000  -0.2000000), wk =   0.0160000
        k(    4) = (  -0.3000000   0.3000000  -0.3000000), wk =   0.0160000
        k(    5) = (  -0.4000000   0.4000000  -0.4000000), wk =   0.0160000
        k(    6) = (   0.5000000  -0.5000000   0.5000000), wk =   0.0080000
        k(    7) = (   0.0000000   0.2000000   0.0000000), wk =   0.0120000
        k(    8) = (  -0.1000000   0.3000000  -0.1000000), wk =   0.0480000
        k(    9) = (  -0.2000000   0.4000000  -0.2000000), wk =   0.0480000
        k(   10) = (  -0.3000000   0.5000000  -0.3000000), wk =   0.0480000
        k(   11) = (   0.6000000  -0.4000000   0.6000000), wk =   0.0480000
        k(   12) = (   0.5000000  -0.3000000   0.5000000), wk =   0.0480000
        k(   13) = (   0.4000000  -0.2000000   0.4000000), wk =   0.0480000
        k(   14) = (   0.3000000  -0.1000000   0.3000000), wk =   0.0480000
        k(   15) = (   0.2000000   0.0000000   0.2000000), wk =   0.0240000
        k(   16) = (   0.0000000   0.4000000   0.0000000), wk =   0.0120000
        k(   17) = (  -0.1000000   0.5000000  -0.1000000), wk =   0.0480000
        k(   18) = (  -0.2000000   0.6000000  -0.2000000), wk =   0.0480000
        k(   19) = (   0.7000000  -0.3000000   0.7000000), wk =   0.0480000
        k(   20) = (   0.6000000  -0.2000000   0.6000000), wk =   0.0480000
        k(   21) = (   0.5000000  -0.1000000   0.5000000), wk =   0.0480000
        k(   22) = (   0.4000000   0.0000000   0.4000000), wk =   0.0240000
        k(   23) = (   0.0000000   0.6000000   0.0000000), wk =   0.0120000
        k(   24) = (  -0.1000000   0.7000000  -0.1000000), wk =   0.0480000
        k(   25) = (   0.8000000  -0.2000000   0.8000000), wk =   0.0480000
        k(   26) = (   0.7000000  -0.1000000   0.7000000), wk =   0.0480000
        k(   27) = (   0.6000000  -0.0000000   0.6000000), wk =   0.0240000
        k(   28) = (   0.0000000   0.8000000   0.0000000), wk =   0.0120000
        k(   29) = (   0.9000000  -0.1000000   0.9000000), wk =   0.0480000
        k(   30) = (   0.8000000   0.0000000   0.8000000), wk =   0.0240000
        k(   31) = (   0.0000000  -1.0000000   0.0000000), wk =   0.0060000
        k(   32) = (  -0.2000000   0.4000000   0.0000000), wk =   0.0480000
        k(   33) = (  -0.3000000   0.5000000  -0.1000000), wk =   0.0960000
        k(   34) = (   0.6000000  -0.4000000   0.8000000), wk =   0.0960000
        k(   35) = (   0.5000000  -0.3000000   0.7000000), wk =   0.0480000
        k(   36) = (  -0.2000000   0.6000000   0.0000000), wk =   0.0480000
        k(   37) = (   0.7000000  -0.3000000   0.9000000), wk =   0.0960000
        k(   38) = (   0.6000000  -0.2000000   0.8000000), wk =   0.0960000
        k(   39) = (   0.5000000  -0.1000000   0.7000000), wk =   0.0960000
        k(   40) = (   0.4000000   0.0000000   0.6000000), wk =   0.0480000
        k(   41) = (   0.8000000  -0.2000000   1.0000000), wk =   0.0480000
        k(   42) = (   0.7000000  -0.1000000   0.9000000), wk =   0.0960000
        k(   43) = (   0.6000000   0.0000000   0.8000000), wk =   0.0480000
        k(   44) = (  -0.2000000  -1.0000000   0.0000000), wk =   0.0240000
        k(   45) = (   0.6000000  -0.2000000   1.0000000), wk =   0.0480000
        k(   46) = (   0.5000000  -0.1000000   0.9000000), wk =   0.0480000
        k(   47) = (  -0.4000000  -1.0000000   0.0000000), wk =   0.0240000

     Dense  grid:    21595 G-vectors     FFT dimensions: (  40,  40,  40)

     Largest allocated arrays     est. size (Mb)     dimensions
        Kohn-Sham Wavefunctions         0.17 Mb     (    2733,    4)
        NL pseudopotentials             0.67 Mb     (    2733,   16)
        Each V/rho on FFT grid          0.98 Mb     (   64000)
        Each G-vector array             0.16 Mb     (   21595)
        G-vector shells                 0.00 Mb     (     253)
     Largest temporary arrays     est. size (Mb)     dimensions
        Auxiliary wavefunctions         0.67 Mb     (    2733,   16)
        Each subspace H/S matrix        0.00 Mb     (      16,   16)
        Each <psi_i|beta_j> matrix      0.00 Mb     (      16,    4)
        Arrays for rho mixing           7.81 Mb     (   64000,    8)

     Initial potential from superposition of free atoms

     starting charge    7.99888, renormalised to    8.00000
     Starting wfc are    8 randomized atomic wfcs
     Checking if some PAW data can be deallocated... 

     total cpu time spent up to now is        3.0 secs

     per-process dynamical memory:    23.1 Mb

     Self-consistent Calculation

     iteration #  1     ecut=    70.00 Ry     beta=0.70
     Davidson diagonalization with overlap
     ethr =  1.00E-02,  avg # of iterations =  2.0

     Threshold (ethr) on eigenvalues was too large:
     Diagonalizing with lowered threshold

     Davidson diagonalization with overlap
     ethr =  7.06E-04,  avg # of iterations =  1.0

     total cpu time spent up to now is        9.0 secs

     total energy              =     -93.45188459 Ry
     Harris-Foulkes estimate   =     -93.46516922 Ry
     estimated scf accuracy    <       0.05586778 Ry

     iteration #  2     ecut=    70.00 Ry     beta=0.70
     Davidson diagonalization with overlap
     ethr =  6.98E-04,  avg # of iterations =  1.0

     total cpu time spent up to now is       11.7 secs

     total energy              =     -93.45391097 Ry
     Harris-Foulkes estimate   =     -93.45404694 Ry
     estimated scf accuracy    <       0.00243794 Ry

     iteration #  3     ecut=    70.00 Ry     beta=0.70
     Davidson diagonalization with overlap
     ethr =  3.05E-05,  avg # of iterations =  2.0

     total cpu time spent up to now is       14.8 secs

     total energy              =     -93.45419572 Ry
     Harris-Foulkes estimate   =     -93.45421452 Ry
     estimated scf accuracy    <       0.00005297 Ry

     iteration #  4     ecut=    70.00 Ry     beta=0.70
     Davidson diagonalization with overlap
     ethr =  6.62E-07,  avg # of iterations =  2.9

     total cpu time spent up to now is       18.7 secs

     total energy              =     -93.45422143 Ry
     Harris-Foulkes estimate   =     -93.45422258 Ry
     estimated scf accuracy    <       0.00000296 Ry

     iteration #  5     ecut=    70.00 Ry     beta=0.70
     Davidson diagonalization with overlap
     ethr =  3.70E-08,  avg # of iterations =  2.7

     total cpu time spent up to now is       22.5 secs

     End of self-consistent calculation

          k = 0.0000 0.0000 0.0000 (  2733 PWs)   bands (ev):

    -5.7954   6.0960   6.0960   6.0960

          k =-0.1000 0.1000-0.1000 (  2716 PWs)   bands (ev):

    -5.6656   4.9508   5.8998   5.8998

          k =-0.2000 0.2000-0.2000 (  2707 PWs)   bands (ev):

    -5.2825   3.0990   5.5222   5.5222

          k =-0.3000 0.3000-0.3000 (  2692 PWs)   bands (ev):

    -4.6729   1.3267   5.1893   5.1893

          k =-0.4000 0.4000-0.4000 (  2701 PWs)   bands (ev):

    -3.9343  -0.1356   4.9779   4.9779

          k = 0.5000-0.5000 0.5000 (  2692 PWs)   bands (ev):

    -3.4897  -0.8248   4.9065   4.9065

          k = 0.0000 0.2000 0.0000 (  2701 PWs)   bands (ev):

    -5.6220   5.1465   5.5269   5.5269

          k =-0.1000 0.3000-0.1000 (  2712 PWs)   bands (ev):

    -5.3221   3.6475   5.0959   5.2599

          k =-0.2000 0.4000-0.2000 (  2703 PWs)   bands (ev):

    -4.7835   1.9019   4.7789   4.8289

          k =-0.3000 0.5000-0.3000 (  2710 PWs)   bands (ev):

    -4.0671   0.3431   4.4203   4.6318

          k = 0.6000-0.4000 0.6000 (  2714 PWs)   bands (ev):

    -3.4351  -0.6820   4.1328   4.6635

          k = 0.5000-0.3000 0.5000 (  2700 PWs)   bands (ev):

    -3.5997  -0.4365   4.0067   4.8608

          k = 0.4000-0.2000 0.4000 (  2707 PWs)   bands (ev):

    -4.3198   0.8322   4.0679   5.1923

          k = 0.3000-0.1000 0.3000 (  2700 PWs)   bands (ev):

    -4.9890   2.4667   4.3436   5.5950

          k = 0.2000 0.0000 0.2000 (  2715 PWs)   bands (ev):

    -5.4509   4.0651   4.9502   5.9197

          k = 0.0000 0.4000 0.0000 (  2702 PWs)   bands (ev):

    -5.1058   3.4637   4.6244   4.6244

          k =-0.1000 0.5000-0.1000 (  2700 PWs)   bands (ev):

    -4.6442   2.2295   4.1191   4.2789

          k =-0.2000 0.6000-0.2000 (  2716 PWs)   bands (ev):

    -3.9755   0.8079   3.4947   4.1199

          k = 0.7000-0.3000 0.7000 (  2702 PWs)   bands (ev):

    -3.2532  -0.3624   2.9890   4.1628

          k = 0.6000-0.2000 0.6000 (  2698 PWs)   bands (ev):

    -3.1029  -0.5675   2.6941   4.3984

          k = 0.5000-0.1000 0.5000 (  2698 PWs)   bands (ev):

    -3.7482   0.4068   2.6766   4.7916

          k = 0.4000 0.0000 0.4000 (  2696 PWs)   bands (ev):

    -4.4587   1.6326   3.1288   5.2571

          k = 0.0000 0.6000 0.0000 (  2702 PWs)   bands (ev):

    -4.2595   1.6832   3.8894   3.8894

          k =-0.1000 0.7000-0.1000 (  2704 PWs)   bands (ev):

    -3.6523   0.6862   3.2707   3.6860

          k = 0.8000-0.2000 0.8000 (  2698 PWs)   bands (ev):

    -2.9101  -0.3095   2.4515   3.6922

          k = 0.7000-0.1000 0.7000 (  2695 PWs)   bands (ev):

    -2.4975  -0.7783   1.9044   3.9055

          k = 0.6000-0.0000 0.6000 (  2700 PWs)   bands (ev):

    -3.0295  -0.1947   1.8792   4.2978

          k = 0.0000 0.8000 0.0000 (  2714 PWs)   bands (ev):

    -3.1069  -0.0642   3.4281   3.4281

          k = 0.9000-0.1000 0.9000 (  2704 PWs)   bands (ev):

    -2.3850  -0.8974   2.8510   3.3798

          k = 0.8000 0.0000 0.8000 (  2684 PWs)   bands (ev):

    -1.9168  -1.3125   2.0792   3.5454

          k = 0.0000-1.0000 0.0000 (  2698 PWs)   bands (ev):

    -1.6881  -1.6881   3.2718   3.2718

          k =-0.2000 0.4000 0.0000 (  2692 PWs)   bands (ev):

    -4.9421   2.7258   4.0389   5.1320

          k =-0.3000 0.5000-0.1000 (  2707 PWs)   bands (ev):

    -4.3364   1.3303   3.4523   4.7615

          k = 0.6000-0.4000 0.8000 (  2700 PWs)   bands (ev):

    -3.5978  -0.0175   3.2195   4.4160

          k = 0.5000-0.3000 0.7000 (  2700 PWs)   bands (ev):

    -3.1456  -0.6860   3.1588   4.2801

          k =-0.2000 0.6000 0.0000 (  2700 PWs)   bands (ev):

    -4.1114   1.3323   3.3189   4.0323

          k = 0.7000-0.3000 0.9000 (  2699 PWs)   bands (ev):

    -3.3985   0.2415   2.7052   3.7083

          k = 0.6000-0.2000 0.8000 (  2698 PWs)   bands (ev):

    -2.7570  -0.6097   2.2998   3.6534

          k = 0.5000-0.1000 0.7000 (  2698 PWs)   bands (ev):

    -2.9559  -0.3538   2.1523   3.8903

          k = 0.4000 0.0000 0.6000 (  2703 PWs)   bands (ev):

    -3.6829   0.5852   2.4517   4.3250

          k = 0.8000-0.2000 1.0000 (  2711 PWs)   bands (ev):

    -2.9903  -0.1496   2.9120   3.2358

          k = 0.7000-0.1000 0.9000 (  2694 PWs)   bands (ev):

    -2.2604  -0.9172   2.2204   3.1459

          k = 0.6000 0.0000 0.8000 (  2688 PWs)   bands (ev):

    -2.2679  -0.8891   1.8100   3.4125

          k =-0.2000-1.0000 0.0000 (  2696 PWs)   bands (ev):

    -1.6364  -1.6364   2.8701   2.8701

          k = 0.6000-0.2000 1.0000 (  2695 PWs)   bands (ev):

    -2.6741  -0.4445   2.1616   3.1388

          k = 0.5000-0.1000 0.9000 (  2704 PWs)   bands (ev):

    -2.1693  -0.9488   2.0062   2.8907

          k =-0.4000-1.0000 0.0000 (  2704 PWs)   bands (ev):

    -1.5456  -1.5456   2.3653   2.3653

     highest occupied level (ev):     6.0960

!    total energy              =     -93.45422234 Ry
     Harris-Foulkes estimate   =     -93.45422242 Ry
     estimated scf accuracy    <       0.00000009 Ry

     total all-electron energy =     -1160.145958 Ry

     The total energy is the sum of the following terms:

     one-electron contribution =       5.64891572 Ry
     hartree contribution      =       1.10739007 Ry
     xc contribution           =     -12.24236743 Ry
     ewald contribution        =     -16.73568324 Ry
     one-center paw contrib.   =     -71.23247745 Ry

     convergence has been achieved in   5 iterations

     Forces acting on atoms (Ry/au):

     atom    1 type  1   force =     0.00000000    0.00000000    0.00000000
     atom    2 type  1   force =     0.00000000    0.00000000    0.00000000

     Total force =     0.000000     Total SCF correction =     0.000000


     entering subroutine stress ...

          total   stress  (Ry/bohr**3)                   (kbar)     P=    7.80
   0.00005305   0.00000000   0.00000000          7.80      0.00      0.00
   0.00000000   0.00005305  -0.00000000          0.00      7.80     -0.00
   0.00000000  -0.00000000   0.00005305          0.00     -0.00      7.80


     Writing output data file pwscf.save
 
     init_run     :      2.69s CPU      2.71s WALL (       1 calls)
     electrons    :     19.34s CPU     19.46s WALL (       1 calls)
     forces       :      0.30s CPU      0.30s WALL (       1 calls)
     stress       :      1.09s CPU      1.09s WALL (       1 calls)

     Called by init_run:
     wfcinit      :      1.79s CPU      1.80s WALL (       1 calls)
     potinit      :      0.25s CPU      0.25s WALL (       1 calls)

     Called by electrons:
     c_bands      :     14.85s CPU     14.94s WALL (       6 calls)
     sum_band     :      3.11s CPU      3.13s WALL (       6 calls)
     v_of_rho     :      0.43s CPU      0.43s WALL (       6 calls)
     newd         :      0.22s CPU      0.22s WALL (       6 calls)
     mix_rho      :      0.04s CPU      0.04s WALL (       6 calls)

     Called by c_bands:
     init_us_2    :      0.69s CPU      0.69s WALL (     705 calls)
     cegterg      :     13.73s CPU     13.79s WALL (     282 calls)

     Called by *egterg:
     h_psi        :     14.18s CPU     14.22s WALL (     874 calls)
     s_psi        :      0.28s CPU      0.28s WALL (     874 calls)
     g_psi        :      0.12s CPU      0.12s WALL (     545 calls)
     cdiaghg      :      0.08s CPU      0.08s WALL (     780 calls)

     Called by h_psi:
     add_vuspsi   :      0.28s CPU      0.28s WALL (     874 calls)

     General routines
     calbec       :      0.43s CPU      0.43s WALL (    1250 calls)
     fft          :      0.32s CPU      0.32s WALL (     105 calls)
     fftw         :     14.48s CPU     14.43s WALL (    7824 calls)
     davcio       :      0.00s CPU      0.00s WALL (      47 calls)
 
     Parallel routines
     fft_scatter  :      1.02s CPU      1.02s WALL (    7929 calls)

     PAW routines
     PAW_pot      :      0.95s CPU      0.95s WALL (       6 calls)
     PAW_symme    :      0.00s CPU      0.00s WALL (      12 calls)
 
     PWSCF        :    23.90s CPU        24.19s WALL

 
   This run was terminated on:  20: 9:35  28Apr2015            

=------------------------------------------------------------------------------=
   JOB DONE.
=------------------------------------------------------------------------------=
