
     Program PWSCF v.5.1 starts on 28Apr2015 at 20: 1:39 

     This program is part of the open-source Quantum ESPRESSO suite
     for quantum simulation of materials; please cite
         "P. Giannozzi et al., J. Phys.:Condens. Matter 21 395502 (2009);
          URL http://www.quantum-espresso.org", 
     in publications or presentations arising from this work. More details at
     http://www.quantum-espresso.org/quote

     Parallel version (MPI), running on     1 processors
     Waiting for input...
     Reading input from standard input
Warning: card &IONS ignored
Warning: card / ignored
Warning: card &CELL ignored
Warning: card / ignored

     Current dimensions of program PWSCF are:
     Max number of different atomic species (ntypx) = 10
     Max number of k-points (npk) =  40000
     Max angular momentum in pseudopotentials (lmaxx) =  3
               file Si.pbe-n-kjpaw_psl.0.1.UPF: wavefunction(s)  3S renormalized

     Subspace diagonalization in iterative solution of the eigenvalue problem:
     a serial algorithm will be used

 
     G-vector sticks info
     --------------------
     sticks:   dense  smooth     PW     G-vecs:    dense   smooth      PW
     Sum        1027    1027    301                21595    21595    3479
 


     bravais-lattice index     =            2
     lattice parameter (alat)  =      10.3000  a.u.
     unit-cell volume          =     273.1818 (a.u.)^3
     number of atoms/cell      =            2
     number of atomic types    =            1
     number of electrons       =         8.00
     number of Kohn-Sham states=            4
     kinetic-energy cutoff     =      70.0000  Ry
     charge density cutoff     =     280.0000  Ry
     convergence threshold     =      1.0E-06
     mixing beta               =       0.7000
     number of iterations used =            8  plain     mixing
     Exchange-correlation      =  SLA  PW   PBX  PBC ( 1  4  3  4 0)

     celldm(1)=  10.300000  celldm(2)=   0.000000  celldm(3)=   0.000000
     celldm(4)=   0.000000  celldm(5)=   0.000000  celldm(6)=   0.000000

     crystal axes: (cart. coord. in units of alat)
               a(1) = (  -0.500000   0.000000   0.500000 )  
               a(2) = (   0.000000   0.500000   0.500000 )  
               a(3) = (  -0.500000   0.500000   0.000000 )  

     reciprocal axes: (cart. coord. in units 2 pi/alat)
               b(1) = ( -1.000000 -1.000000  1.000000 )  
               b(2) = (  1.000000  1.000000  1.000000 )  
               b(3) = ( -1.000000  1.000000 -1.000000 )  


     PseudoPot. # 1 for Si read from file:
     ./Si.pbe-n-kjpaw_psl.0.1.UPF
     MD5 check sum: b9d333a40e496bef61db012f150758bf
     Pseudo is Projector augmented-wave + core cor, Zval =  4.0
     Generated using "atomic" code by A. Dal Corso  v.5.0.2 svn rev. 9415
     Shape of augmentation charge: PSQ
     Using radial grid of 1141 points,  4 beta functions with: 
                l(1) =   0
                l(2) =   0
                l(3) =   1
                l(4) =   1
     Q(r) pseudized with 0 coefficients 


     atomic species   valence    mass     pseudopotential
        Si             4.00    28.05500     Si( 1.00)

     48 Sym. Ops., with inversion, found (24 have fractional translation)



   Cartesian axes

     site n.     atom                  positions (alat units)
         1           Si  tau(   1) = (   0.0000000   0.0000000   0.0000000  )
         2           Si  tau(   2) = (  -0.2500000   0.2500000   0.2500000  )

     number of k points=    20
                       cart. coord. in units 2pi/alat
        k(    1) = (   0.0000000   0.0000000   0.0000000), wk =   0.0058309
        k(    2) = (  -0.1428571   0.1428571  -0.1428571), wk =   0.0466472
        k(    3) = (  -0.2857143   0.2857143  -0.2857143), wk =   0.0466472
        k(    4) = (  -0.4285714   0.4285714  -0.4285714), wk =   0.0466472
        k(    5) = (   0.0000000   0.2857143   0.0000000), wk =   0.0349854
        k(    6) = (  -0.1428571   0.4285714  -0.1428571), wk =   0.1399417
        k(    7) = (  -0.2857143   0.5714286  -0.2857143), wk =   0.1399417
        k(    8) = (   0.5714286  -0.2857143   0.5714286), wk =   0.1399417
        k(    9) = (   0.4285714  -0.1428571   0.4285714), wk =   0.1399417
        k(   10) = (   0.2857143  -0.0000000   0.2857143), wk =   0.0699708
        k(   11) = (   0.0000000   0.5714286   0.0000000), wk =   0.0349854
        k(   12) = (  -0.1428571   0.7142857  -0.1428571), wk =   0.1399417
        k(   13) = (   0.7142857  -0.1428571   0.7142857), wk =   0.1399417
        k(   14) = (   0.5714286   0.0000000   0.5714286), wk =   0.0699708
        k(   15) = (   0.0000000   0.8571429   0.0000000), wk =   0.0349854
        k(   16) = (   0.8571429  -0.0000000   0.8571429), wk =   0.0699708
        k(   17) = (  -0.2857143   0.5714286   0.0000000), wk =   0.1399417
        k(   18) = (   0.5714286  -0.2857143   0.8571429), wk =   0.2798834
        k(   19) = (   0.7142857  -0.1428571   1.0000000), wk =   0.1399417
        k(   20) = (   0.5714286   0.0000000   0.8571429), wk =   0.1399417

     Dense  grid:    21595 G-vectors     FFT dimensions: (  40,  40,  40)

     Largest allocated arrays     est. size (Mb)     dimensions
        Kohn-Sham Wavefunctions         0.17 Mb     (    2733,    4)
        NL pseudopotentials             0.67 Mb     (    2733,   16)
        Each V/rho on FFT grid          0.98 Mb     (   64000)
        Each G-vector array             0.16 Mb     (   21595)
        G-vector shells                 0.00 Mb     (     253)
     Largest temporary arrays     est. size (Mb)     dimensions
        Auxiliary wavefunctions         0.67 Mb     (    2733,   16)
        Each subspace H/S matrix        0.00 Mb     (      16,   16)
        Each <psi_i|beta_j> matrix      0.00 Mb     (      16,    4)
        Arrays for rho mixing           7.81 Mb     (   64000,    8)

     Initial potential from superposition of free atoms

     starting charge    7.99888, renormalised to    8.00000
     Starting wfc are    8 randomized atomic wfcs
     Checking if some PAW data can be deallocated... 

     total cpu time spent up to now is        2.3 secs

     per-process dynamical memory:    18.8 Mb

     Self-consistent Calculation

     iteration #  1     ecut=    70.00 Ry     beta=0.70
     Davidson diagonalization with overlap
     ethr =  1.00E-02,  avg # of iterations =  2.0

     Threshold (ethr) on eigenvalues was too large:
     Diagonalizing with lowered threshold

     Davidson diagonalization with overlap
     ethr =  7.11E-04,  avg # of iterations =  1.1

     total cpu time spent up to now is        5.1 secs

     total energy              =     -93.45124545 Ry
     Harris-Foulkes estimate   =     -93.46465228 Ry
     estimated scf accuracy    <       0.05630878 Ry

     iteration #  2     ecut=    70.00 Ry     beta=0.70
     Davidson diagonalization with overlap
     ethr =  7.04E-04,  avg # of iterations =  1.0

     total cpu time spent up to now is        6.4 secs

     total energy              =     -93.45328394 Ry
     Harris-Foulkes estimate   =     -93.45342010 Ry
     estimated scf accuracy    <       0.00245825 Ry

     iteration #  3     ecut=    70.00 Ry     beta=0.70
     Davidson diagonalization with overlap
     ethr =  3.07E-05,  avg # of iterations =  1.9

     total cpu time spent up to now is        7.9 secs

     total energy              =     -93.45355689 Ry
     Harris-Foulkes estimate   =     -93.45357323 Ry
     estimated scf accuracy    <       0.00005118 Ry

     iteration #  4     ecut=    70.00 Ry     beta=0.70
     Davidson diagonalization with overlap
     ethr =  6.40E-07,  avg # of iterations =  3.1

     total cpu time spent up to now is        9.8 secs

     total energy              =     -93.45358460 Ry
     Harris-Foulkes estimate   =     -93.45358524 Ry
     estimated scf accuracy    <       0.00000182 Ry

     iteration #  5     ecut=    70.00 Ry     beta=0.70
     Davidson diagonalization with overlap
     ethr =  2.27E-08,  avg # of iterations =  2.9

     total cpu time spent up to now is       11.6 secs

     End of self-consistent calculation

          k = 0.0000 0.0000 0.0000 (  2733 PWs)   bands (ev):

    -5.7929   6.0992   6.0992   6.0992

          k =-0.1429 0.1429-0.1429 (  2698 PWs)   bands (ev):

    -5.5290   4.1713   5.7455   5.7455

          k =-0.2857 0.2857-0.2857 (  2698 PWs)   bands (ev):

    -4.7690   1.5689   5.2331   5.2331

          k =-0.4286 0.4286-0.4286 (  2725 PWs)   bands (ev):

    -3.7390  -0.4454   4.9458   4.9458

          k = 0.0000 0.2857 0.0000 (  2714 PWs)   bands (ev):

    -5.4397   4.4566   5.1372   5.1372

          k =-0.1429 0.4286-0.1429 (  2706 PWs)   bands (ev):

    -4.8378   2.3514   4.5544   4.5987

          k =-0.2857 0.5714-0.2857 (  2700 PWs)   bands (ev):

    -3.8381   0.1852   3.8703   4.4104

          k = 0.5714-0.2857 0.5714 (  2702 PWs)   bands (ev):

    -3.2858  -0.6705   3.4600   4.6058

          k = 0.4286-0.1429 0.4286 (  2696 PWs)   bands (ev):

    -4.2031   0.8594   3.4664   5.1153

          k = 0.2857-0.0000 0.2857 (  2701 PWs)   bands (ev):

    -5.0963   2.9665   4.1541   5.7035

          k = 0.0000 0.5714 0.0000 (  2690 PWs)   bands (ev):

    -4.3972   1.9407   3.9814   3.9814

          k =-0.1429 0.7143-0.1429 (  2714 PWs)   bands (ev):

    -3.5022   0.4492   3.0124   3.7232

          k = 0.7143-0.1429 0.7143 (  2692 PWs)   bands (ev):

    -2.5941  -0.7178   2.0678   3.8903

          k = 0.5714 0.0000 0.5714 (  2700 PWs)   bands (ev):

    -3.2382   0.0269   1.9952   4.4348

          k = 0.0000 0.8571 0.0000 (  2714 PWs)   bands (ev):

    -2.7238  -0.5417   3.3541   3.3541

          k = 0.8571-0.0000 0.8571 (  2694 PWs)   bands (ev):

    -1.7826  -1.4935   2.4715   3.4151

          k =-0.2857 0.5714 0.0000 (  2716 PWs)   bands (ev):

    -4.0914   1.2127   3.0158   4.3281

          k = 0.5714-0.2857 0.8571 (  2689 PWs)   bands (ev):

    -3.0592  -0.3056   2.4457   3.7973

          k = 0.7143-0.1429 1.0000 (  2700 PWs)   bands (ev):

    -2.5214  -0.6281   2.5372   2.9454

          k = 0.5714 0.0000 0.8571 (  2689 PWs)   bands (ev):

    -2.0897  -1.0215   1.9055   3.0362

     highest occupied level (ev):     6.0992

!    total energy              =     -93.45358529 Ry
     Harris-Foulkes estimate   =     -93.45358534 Ry
     estimated scf accuracy    <       0.00000005 Ry

     total all-electron energy =     -1160.145321 Ry

     The total energy is the sum of the following terms:

     one-electron contribution =       5.64859788 Ry
     hartree contribution      =       1.10928334 Ry
     xc contribution           =     -12.24329246 Ry
     ewald contribution        =     -16.73568324 Ry
     one-center paw contrib.   =     -71.23249079 Ry

     convergence has been achieved in   5 iterations

     Forces acting on atoms (Ry/au):

     atom    1 type  1   force =     0.00000000    0.00000000    0.00000000
     atom    2 type  1   force =     0.00000000    0.00000000    0.00000000

     Total force =     0.000000     Total SCF correction =     0.000000


     entering subroutine stress ...

          total   stress  (Ry/bohr**3)                   (kbar)     P=    8.04
   0.00005462  -0.00000000  -0.00000000          8.04     -0.00     -0.00
  -0.00000000   0.00005462   0.00000000         -0.00      8.04      0.00
  -0.00000000   0.00000000   0.00005462         -0.00      0.00      8.04


     Writing output data file pwscf.save
 
     init_run     :      1.64s CPU      1.97s WALL (       1 calls)
     electrons    :      9.27s CPU      9.35s WALL (       1 calls)
     forces       :      0.22s CPU      0.22s WALL (       1 calls)
     stress       :      0.69s CPU      0.69s WALL (       1 calls)

     Called by init_run:
     wfcinit      :      0.75s CPU      0.76s WALL (       1 calls)
     potinit      :      0.24s CPU      0.25s WALL (       1 calls)

     Called by electrons:
     c_bands      :      6.40s CPU      6.45s WALL (       6 calls)
     sum_band     :      1.48s CPU      1.49s WALL (       6 calls)
     v_of_rho     :      0.43s CPU      0.44s WALL (       6 calls)
     newd         :      0.22s CPU      0.22s WALL (       6 calls)
     mix_rho      :      0.04s CPU      0.04s WALL (       6 calls)

     Called by c_bands:
     init_us_2    :      0.29s CPU      0.30s WALL (     300 calls)
     cegterg      :      5.92s CPU      5.96s WALL (     120 calls)

     Called by *egterg:
     h_psi        :      6.09s CPU      6.13s WALL (     377 calls)
     s_psi        :      0.12s CPU      0.12s WALL (     377 calls)
     g_psi        :      0.05s CPU      0.05s WALL (     237 calls)
     cdiaghg      :      0.03s CPU      0.03s WALL (     337 calls)

     Called by h_psi:
     add_vuspsi   :      0.11s CPU      0.12s WALL (     377 calls)

     General routines
     calbec       :      0.18s CPU      0.19s WALL (     537 calls)
     fft          :      0.32s CPU      0.32s WALL (     105 calls)
     fftw         :      6.19s CPU      6.20s WALL (    3352 calls)
     davcio       :      0.00s CPU      0.00s WALL (      20 calls)
 
     Parallel routines
     fft_scatter  :      0.46s CPU      0.45s WALL (    3457 calls)

     PAW routines
     PAW_pot      :      0.95s CPU      0.95s WALL (       6 calls)
     PAW_symme    :      0.00s CPU      0.00s WALL (      12 calls)
 
     PWSCF        :    12.24s CPU        13.39s WALL

 
   This run was terminated on:  20: 1:52  28Apr2015            

=------------------------------------------------------------------------------=
   JOB DONE.
=------------------------------------------------------------------------------=
