
     Program PWSCF v.5.1 starts on 28Apr2015 at 20:10:13 

     This program is part of the open-source Quantum ESPRESSO suite
     for quantum simulation of materials; please cite
         "P. Giannozzi et al., J. Phys.:Condens. Matter 21 395502 (2009);
          URL http://www.quantum-espresso.org", 
     in publications or presentations arising from this work. More details at
     http://www.quantum-espresso.org/quote

     Parallel version (MPI), running on     1 processors
     Waiting for input...
     Reading input from standard input
Warning: card &IONS ignored
Warning: card / ignored
Warning: card &CELL ignored
Warning: card / ignored

     Current dimensions of program PWSCF are:
     Max number of different atomic species (ntypx) = 10
     Max number of k-points (npk) =  40000
     Max angular momentum in pseudopotentials (lmaxx) =  3
               file Si.pbe-n-kjpaw_psl.0.1.UPF: wavefunction(s)  3S renormalized

     Subspace diagonalization in iterative solution of the eigenvalue problem:
     a serial algorithm will be used

 
     G-vector sticks info
     --------------------
     sticks:   dense  smooth     PW     G-vecs:    dense   smooth      PW
     Sum        1303    1303    379                31283    31283    5029
 


     bravais-lattice index     =            2
     lattice parameter (alat)  =      10.3000  a.u.
     unit-cell volume          =     273.1818 (a.u.)^3
     number of atoms/cell      =            2
     number of atomic types    =            1
     number of electrons       =         8.00
     number of Kohn-Sham states=            4
     kinetic-energy cutoff     =      90.0000  Ry
     charge density cutoff     =     360.0000  Ry
     convergence threshold     =      1.0E-06
     mixing beta               =       0.7000
     number of iterations used =            8  plain     mixing
     Exchange-correlation      =  SLA  PW   PBX  PBC ( 1  4  3  4 0)

     celldm(1)=  10.300000  celldm(2)=   0.000000  celldm(3)=   0.000000
     celldm(4)=   0.000000  celldm(5)=   0.000000  celldm(6)=   0.000000

     crystal axes: (cart. coord. in units of alat)
               a(1) = (  -0.500000   0.000000   0.500000 )  
               a(2) = (   0.000000   0.500000   0.500000 )  
               a(3) = (  -0.500000   0.500000   0.000000 )  

     reciprocal axes: (cart. coord. in units 2 pi/alat)
               b(1) = ( -1.000000 -1.000000  1.000000 )  
               b(2) = (  1.000000  1.000000  1.000000 )  
               b(3) = ( -1.000000  1.000000 -1.000000 )  


     PseudoPot. # 1 for Si read from file:
     ./Si.pbe-n-kjpaw_psl.0.1.UPF
     MD5 check sum: b9d333a40e496bef61db012f150758bf
     Pseudo is Projector augmented-wave + core cor, Zval =  4.0
     Generated using "atomic" code by A. Dal Corso  v.5.0.2 svn rev. 9415
     Shape of augmentation charge: PSQ
     Using radial grid of 1141 points,  4 beta functions with: 
                l(1) =   0
                l(2) =   0
                l(3) =   1
                l(4) =   1
     Q(r) pseudized with 0 coefficients 


     atomic species   valence    mass     pseudopotential
        Si             4.00    28.05500     Si( 1.00)

     24 Sym. Ops. (no inversion) found
          (note: 24 additional sym.ops. were found but ignored
           their fractional translations are incommensurate with FFT grid)


   Cartesian axes

     site n.     atom                  positions (alat units)
         1           Si  tau(   1) = (   0.0000000   0.0000000   0.0000000  )
         2           Si  tau(   2) = (  -0.2500000   0.2500000   0.2500000  )

     number of k points=    47
                       cart. coord. in units 2pi/alat
        k(    1) = (   0.0000000   0.0000000   0.0000000), wk =   0.0020000
        k(    2) = (  -0.1000000   0.1000000  -0.1000000), wk =   0.0160000
        k(    3) = (  -0.2000000   0.2000000  -0.2000000), wk =   0.0160000
        k(    4) = (  -0.3000000   0.3000000  -0.3000000), wk =   0.0160000
        k(    5) = (  -0.4000000   0.4000000  -0.4000000), wk =   0.0160000
        k(    6) = (   0.5000000  -0.5000000   0.5000000), wk =   0.0080000
        k(    7) = (   0.0000000   0.2000000   0.0000000), wk =   0.0120000
        k(    8) = (  -0.1000000   0.3000000  -0.1000000), wk =   0.0480000
        k(    9) = (  -0.2000000   0.4000000  -0.2000000), wk =   0.0480000
        k(   10) = (  -0.3000000   0.5000000  -0.3000000), wk =   0.0480000
        k(   11) = (   0.6000000  -0.4000000   0.6000000), wk =   0.0480000
        k(   12) = (   0.5000000  -0.3000000   0.5000000), wk =   0.0480000
        k(   13) = (   0.4000000  -0.2000000   0.4000000), wk =   0.0480000
        k(   14) = (   0.3000000  -0.1000000   0.3000000), wk =   0.0480000
        k(   15) = (   0.2000000   0.0000000   0.2000000), wk =   0.0240000
        k(   16) = (   0.0000000   0.4000000   0.0000000), wk =   0.0120000
        k(   17) = (  -0.1000000   0.5000000  -0.1000000), wk =   0.0480000
        k(   18) = (  -0.2000000   0.6000000  -0.2000000), wk =   0.0480000
        k(   19) = (   0.7000000  -0.3000000   0.7000000), wk =   0.0480000
        k(   20) = (   0.6000000  -0.2000000   0.6000000), wk =   0.0480000
        k(   21) = (   0.5000000  -0.1000000   0.5000000), wk =   0.0480000
        k(   22) = (   0.4000000   0.0000000   0.4000000), wk =   0.0240000
        k(   23) = (   0.0000000   0.6000000   0.0000000), wk =   0.0120000
        k(   24) = (  -0.1000000   0.7000000  -0.1000000), wk =   0.0480000
        k(   25) = (   0.8000000  -0.2000000   0.8000000), wk =   0.0480000
        k(   26) = (   0.7000000  -0.1000000   0.7000000), wk =   0.0480000
        k(   27) = (   0.6000000  -0.0000000   0.6000000), wk =   0.0240000
        k(   28) = (   0.0000000   0.8000000   0.0000000), wk =   0.0120000
        k(   29) = (   0.9000000  -0.1000000   0.9000000), wk =   0.0480000
        k(   30) = (   0.8000000   0.0000000   0.8000000), wk =   0.0240000
        k(   31) = (   0.0000000  -1.0000000   0.0000000), wk =   0.0060000
        k(   32) = (  -0.2000000   0.4000000   0.0000000), wk =   0.0480000
        k(   33) = (  -0.3000000   0.5000000  -0.1000000), wk =   0.0960000
        k(   34) = (   0.6000000  -0.4000000   0.8000000), wk =   0.0960000
        k(   35) = (   0.5000000  -0.3000000   0.7000000), wk =   0.0480000
        k(   36) = (  -0.2000000   0.6000000   0.0000000), wk =   0.0480000
        k(   37) = (   0.7000000  -0.3000000   0.9000000), wk =   0.0960000
        k(   38) = (   0.6000000  -0.2000000   0.8000000), wk =   0.0960000
        k(   39) = (   0.5000000  -0.1000000   0.7000000), wk =   0.0960000
        k(   40) = (   0.4000000   0.0000000   0.6000000), wk =   0.0480000
        k(   41) = (   0.8000000  -0.2000000   1.0000000), wk =   0.0480000
        k(   42) = (   0.7000000  -0.1000000   0.9000000), wk =   0.0960000
        k(   43) = (   0.6000000   0.0000000   0.8000000), wk =   0.0480000
        k(   44) = (  -0.2000000  -1.0000000   0.0000000), wk =   0.0240000
        k(   45) = (   0.6000000  -0.2000000   1.0000000), wk =   0.0480000
        k(   46) = (   0.5000000  -0.1000000   0.9000000), wk =   0.0480000
        k(   47) = (  -0.4000000  -1.0000000   0.0000000), wk =   0.0240000

     Dense  grid:    31283 G-vectors     FFT dimensions: (  45,  45,  45)

     Largest allocated arrays     est. size (Mb)     dimensions
        Kohn-Sham Wavefunctions         0.24 Mb     (    3959,    4)
        NL pseudopotentials             0.97 Mb     (    3959,   16)
        Each V/rho on FFT grid          1.39 Mb     (   91125)
        Each G-vector array             0.24 Mb     (   31283)
        G-vector shells                 0.00 Mb     (     324)
     Largest temporary arrays     est. size (Mb)     dimensions
        Auxiliary wavefunctions         0.97 Mb     (    3959,   16)
        Each subspace H/S matrix        0.00 Mb     (      16,   16)
        Each <psi_i|beta_j> matrix      0.00 Mb     (      16,    4)
        Arrays for rho mixing          11.12 Mb     (   91125,    8)

     Initial potential from superposition of free atoms

     starting charge    7.99888, renormalised to    8.00000
     Starting wfc are    8 randomized atomic wfcs
     Checking if some PAW data can be deallocated... 

     total cpu time spent up to now is        4.2 secs

     per-process dynamical memory:    31.8 Mb

     Self-consistent Calculation

     iteration #  1     ecut=    90.00 Ry     beta=0.70
     Davidson diagonalization with overlap
     ethr =  1.00E-02,  avg # of iterations =  2.0

     Threshold (ethr) on eigenvalues was too large:
     Diagonalizing with lowered threshold

     Davidson diagonalization with overlap
     ethr =  7.07E-04,  avg # of iterations =  1.0

     total cpu time spent up to now is       13.6 secs

     total energy              =     -93.45190127 Ry
     Harris-Foulkes estimate   =     -93.46516267 Ry
     estimated scf accuracy    <       0.05577197 Ry

     iteration #  2     ecut=    90.00 Ry     beta=0.70
     Davidson diagonalization with overlap
     ethr =  6.97E-04,  avg # of iterations =  1.0

     total cpu time spent up to now is       17.9 secs

     total energy              =     -93.45391612 Ry
     Harris-Foulkes estimate   =     -93.45405410 Ry
     estimated scf accuracy    <       0.00244997 Ry

     iteration #  3     ecut=    90.00 Ry     beta=0.70
     Davidson diagonalization with overlap
     ethr =  3.06E-05,  avg # of iterations =  2.1

     total cpu time spent up to now is       22.7 secs

     total energy              =     -93.45420228 Ry
     Harris-Foulkes estimate   =     -93.45422115 Ry
     estimated scf accuracy    <       0.00005270 Ry

     iteration #  4     ecut=    90.00 Ry     beta=0.70
     Davidson diagonalization with overlap
     ethr =  6.59E-07,  avg # of iterations =  2.9

     total cpu time spent up to now is       28.9 secs

     total energy              =     -93.45422888 Ry
     Harris-Foulkes estimate   =     -93.45422997 Ry
     estimated scf accuracy    <       0.00000286 Ry

     iteration #  5     ecut=    90.00 Ry     beta=0.70
     Davidson diagonalization with overlap
     ethr =  3.58E-08,  avg # of iterations =  2.6

     total cpu time spent up to now is       34.6 secs

     End of self-consistent calculation

          k = 0.0000 0.0000 0.0000 (  3839 PWs)   bands (ev):

    -5.7955   6.0959   6.0959   6.0959

          k =-0.1000 0.1000-0.1000 (  3897 PWs)   bands (ev):

    -5.6657   4.9506   5.8996   5.8996

          k =-0.2000 0.2000-0.2000 (  3909 PWs)   bands (ev):

    -5.2826   3.0988   5.5220   5.5220

          k =-0.3000 0.3000-0.3000 (  3906 PWs)   bands (ev):

    -4.6730   1.3266   5.1891   5.1891

          k =-0.4000 0.4000-0.4000 (  3915 PWs)   bands (ev):

    -3.9345  -0.1357   4.9777   4.9777

          k = 0.5000-0.5000 0.5000 (  3906 PWs)   bands (ev):

    -3.4899  -0.8249   4.9063   4.9063

          k = 0.0000 0.2000 0.0000 (  3919 PWs)   bands (ev):

    -5.6221   5.1464   5.5268   5.5268

          k =-0.1000 0.3000-0.1000 (  3920 PWs)   bands (ev):

    -5.3223   3.6473   5.0957   5.2597

          k =-0.2000 0.4000-0.2000 (  3942 PWs)   bands (ev):

    -4.7836   1.9017   4.7788   4.8288

          k =-0.3000 0.5000-0.3000 (  3927 PWs)   bands (ev):

    -4.0672   0.3430   4.4202   4.6316

          k = 0.6000-0.4000 0.6000 (  3936 PWs)   bands (ev):

    -3.4353  -0.6822   4.1326   4.6633

          k = 0.5000-0.3000 0.5000 (  3932 PWs)   bands (ev):

    -3.5999  -0.4366   4.0065   4.8606

          k = 0.4000-0.2000 0.4000 (  3919 PWs)   bands (ev):

    -4.3199   0.8321   4.0678   5.1921

          k = 0.3000-0.1000 0.3000 (  3930 PWs)   bands (ev):

    -4.9891   2.4665   4.3435   5.5948

          k = 0.2000 0.0000 0.2000 (  3901 PWs)   bands (ev):

    -5.4510   4.0650   4.9500   5.9195

          k = 0.0000 0.4000 0.0000 (  3931 PWs)   bands (ev):

    -5.1060   3.4635   4.6243   4.6243

          k =-0.1000 0.5000-0.1000 (  3936 PWs)   bands (ev):

    -4.6444   2.2294   4.1190   4.2787

          k =-0.2000 0.6000-0.2000 (  3933 PWs)   bands (ev):

    -3.9756   0.8078   3.4946   4.1198

          k = 0.7000-0.3000 0.7000 (  3943 PWs)   bands (ev):

    -3.2534  -0.3626   2.9889   4.1627

          k = 0.6000-0.2000 0.6000 (  3938 PWs)   bands (ev):

    -3.1030  -0.5677   2.6940   4.3982

          k = 0.5000-0.1000 0.5000 (  3941 PWs)   bands (ev):

    -3.7483   0.4067   2.6765   4.7914

          k = 0.4000 0.0000 0.4000 (  3929 PWs)   bands (ev):

    -4.4588   1.6324   3.1287   5.2569

          k = 0.0000 0.6000 0.0000 (  3956 PWs)   bands (ev):

    -4.2596   1.6830   3.8893   3.8893

          k =-0.1000 0.7000-0.1000 (  3953 PWs)   bands (ev):

    -3.6524   0.6860   3.2706   3.6859

          k = 0.8000-0.2000 0.8000 (  3949 PWs)   bands (ev):

    -2.9103  -0.3097   2.4514   3.6921

          k = 0.7000-0.1000 0.7000 (  3946 PWs)   bands (ev):

    -2.4976  -0.7785   1.9043   3.9053

          k = 0.6000-0.0000 0.6000 (  3947 PWs)   bands (ev):

    -3.0297  -0.1949   1.8791   4.2976

          k = 0.0000 0.8000 0.0000 (  3956 PWs)   bands (ev):

    -3.1071  -0.0643   3.4280   3.4280

          k = 0.9000-0.1000 0.9000 (  3952 PWs)   bands (ev):

    -2.3852  -0.8976   2.8508   3.3797

          k = 0.8000 0.0000 0.8000 (  3935 PWs)   bands (ev):

    -1.9170  -1.3127   2.0791   3.5453

          k = 0.0000-1.0000 0.0000 (  3940 PWs)   bands (ev):

    -1.6883  -1.6882   3.2716   3.2716

          k =-0.2000 0.4000 0.0000 (  3939 PWs)   bands (ev):

    -4.9422   2.7256   4.0387   5.1318

          k =-0.3000 0.5000-0.1000 (  3933 PWs)   bands (ev):

    -4.3365   1.3302   3.4522   4.7614

          k = 0.6000-0.4000 0.8000 (  3930 PWs)   bands (ev):

    -3.5980  -0.0176   3.2193   4.4158

          k = 0.5000-0.3000 0.7000 (  3938 PWs)   bands (ev):

    -3.1457  -0.6862   3.1587   4.2799

          k =-0.2000 0.6000 0.0000 (  3947 PWs)   bands (ev):

    -4.1116   1.3321   3.3188   4.0321

          k = 0.7000-0.3000 0.9000 (  3945 PWs)   bands (ev):

    -3.3986   0.2414   2.7051   3.7082

          k = 0.6000-0.2000 0.8000 (  3951 PWs)   bands (ev):

    -2.7571  -0.6098   2.2997   3.6533

          k = 0.5000-0.1000 0.7000 (  3941 PWs)   bands (ev):

    -2.9560  -0.3540   2.1522   3.8902

          k = 0.4000 0.0000 0.6000 (  3933 PWs)   bands (ev):

    -3.6830   0.5850   2.4516   4.3248

          k = 0.8000-0.2000 1.0000 (  3959 PWs)   bands (ev):

    -2.9904  -0.1498   2.9119   3.2357

          k = 0.7000-0.1000 0.9000 (  3951 PWs)   bands (ev):

    -2.2606  -0.9174   2.2203   3.1457

          k = 0.6000 0.0000 0.8000 (  3946 PWs)   bands (ev):

    -2.2680  -0.8892   1.8099   3.4124

          k =-0.2000-1.0000 0.0000 (  3954 PWs)   bands (ev):

    -1.6366  -1.6365   2.8700   2.8700

          k = 0.6000-0.2000 1.0000 (  3955 PWs)   bands (ev):

    -2.6743  -0.4447   2.1615   3.1386

          k = 0.5000-0.1000 0.9000 (  3942 PWs)   bands (ev):

    -2.1695  -0.9489   2.0061   2.8906

          k =-0.4000-1.0000 0.0000 (  3936 PWs)   bands (ev):

    -1.5458  -1.5457   2.3652   2.3652

     highest occupied level (ev):     6.0959

!    total energy              =     -93.45422973 Ry
     Harris-Foulkes estimate   =     -93.45422980 Ry
     estimated scf accuracy    <       0.00000007 Ry

     total all-electron energy =     -1160.145966 Ry

     The total energy is the sum of the following terms:

     one-electron contribution =       5.64888631 Ry
     hartree contribution      =       1.10741861 Ry
     xc contribution           =     -12.24236379 Ry
     ewald contribution        =     -16.73568324 Ry
     one-center paw contrib.   =     -71.23248761 Ry

     convergence has been achieved in   5 iterations

     Forces acting on atoms (Ry/au):

     atom    1 type  1   force =     0.00000000    0.00000000   -0.00000000
     atom    2 type  1   force =     0.00000000    0.00000000    0.00000000

     Total force =     0.000000     Total SCF correction =     0.000000


     entering subroutine stress ...

          total   stress  (Ry/bohr**3)                   (kbar)     P=    7.81
   0.00005307   0.00000000  -0.00000000          7.81      0.00     -0.00
  -0.00000000   0.00005307  -0.00000000         -0.00      7.81     -0.00
  -0.00000000  -0.00000000   0.00005307         -0.00     -0.00      7.81


     Writing output data file pwscf.save
 
     init_run     :      3.88s CPU      3.91s WALL (       1 calls)
     electrons    :     30.35s CPU     30.83s WALL (       1 calls)
     forces       :      0.45s CPU      0.45s WALL (       1 calls)
     stress       :      1.61s CPU      1.62s WALL (       1 calls)

     Called by init_run:
     wfcinit      :      2.83s CPU      2.84s WALL (       1 calls)
     potinit      :      0.29s CPU      0.29s WALL (       1 calls)

     Called by electrons:
     c_bands      :     23.52s CPU     23.59s WALL (       6 calls)
     sum_band     :      5.15s CPU      5.17s WALL (       6 calls)
     v_of_rho     :      0.65s CPU      0.65s WALL (       6 calls)
     newd         :      0.32s CPU      0.32s WALL (       6 calls)
     mix_rho      :      0.05s CPU      0.06s WALL (       6 calls)

     Called by c_bands:
     init_us_2    :      1.05s CPU      1.03s WALL (     705 calls)
     cegterg      :     21.85s CPU     21.91s WALL (     282 calls)

     Called by *egterg:
     h_psi        :     22.66s CPU     22.73s WALL (     875 calls)
     s_psi        :      0.41s CPU      0.41s WALL (     875 calls)
     g_psi        :      0.19s CPU      0.18s WALL (     546 calls)
     cdiaghg      :      0.10s CPU      0.09s WALL (     781 calls)

     Called by h_psi:
     add_vuspsi   :      0.43s CPU      0.42s WALL (     875 calls)

     General routines
     calbec       :      0.61s CPU      0.64s WALL (    1251 calls)
     fft          :      0.50s CPU      0.51s WALL (     105 calls)
     fftw         :     23.36s CPU     23.44s WALL (    7830 calls)
     davcio       :      0.00s CPU      0.01s WALL (      47 calls)
 
     Parallel routines
     fft_scatter  :      1.77s CPU      1.75s WALL (    7935 calls)

     PAW routines
     PAW_pot      :      0.95s CPU      0.95s WALL (       6 calls)
     PAW_symme    :      0.00s CPU      0.00s WALL (      12 calls)
 
     PWSCF        :    36.79s CPU        37.90s WALL

 
   This run was terminated on:  20:10:50  28Apr2015            

=------------------------------------------------------------------------------=
   JOB DONE.
=------------------------------------------------------------------------------=
