
     Program PWSCF v.5.1 starts on 28Apr2015 at  0: 4: 8 

     This program is part of the open-source Quantum ESPRESSO suite
     for quantum simulation of materials; please cite
         "P. Giannozzi et al., J. Phys.:Condens. Matter 21 395502 (2009);
          URL http://www.quantum-espresso.org", 
     in publications or presentations arising from this work. More details at
     http://www.quantum-espresso.org/quote

     Parallel version (MPI), running on     1 processors
     Waiting for input...
     Reading input from standard input
Warning: card &IONS ignored
Warning: card / ignored
Warning: card &CELL ignored
Warning: card / ignored

     Current dimensions of program PWSCF are:
     Max number of different atomic species (ntypx) = 10
     Max number of k-points (npk) =  40000
     Max angular momentum in pseudopotentials (lmaxx) =  3
               file Si.pbe-n-kjpaw_psl.0.1.UPF: wavefunction(s)  3S renormalized

     Subspace diagonalization in iterative solution of the eigenvalue problem:
     a serial algorithm will be used

 
     G-vector sticks info
     --------------------
     sticks:   dense  smooth     PW     G-vecs:    dense   smooth      PW
     Sum        1453    1453    421                36325    36325    5601
 


     bravais-lattice index     =            2
     lattice parameter (alat)  =      10.2600  a.u.
     unit-cell volume          =     270.0114 (a.u.)^3
     number of atoms/cell      =            2
     number of atomic types    =            1
     number of electrons       =         8.00
     number of Kohn-Sham states=            4
     kinetic-energy cutoff     =     100.0000  Ry
     charge density cutoff     =     400.0000  Ry
     convergence threshold     =      1.0E-06
     mixing beta               =       0.7000
     number of iterations used =            8  plain     mixing
     Exchange-correlation      =  SLA  PW   PBX  PBC ( 1  4  3  4 0)

     celldm(1)=  10.260000  celldm(2)=   0.000000  celldm(3)=   0.000000
     celldm(4)=   0.000000  celldm(5)=   0.000000  celldm(6)=   0.000000

     crystal axes: (cart. coord. in units of alat)
               a(1) = (  -0.500000   0.000000   0.500000 )  
               a(2) = (   0.000000   0.500000   0.500000 )  
               a(3) = (  -0.500000   0.500000   0.000000 )  

     reciprocal axes: (cart. coord. in units 2 pi/alat)
               b(1) = ( -1.000000 -1.000000  1.000000 )  
               b(2) = (  1.000000  1.000000  1.000000 )  
               b(3) = ( -1.000000  1.000000 -1.000000 )  


     PseudoPot. # 1 for Si read from file:
     ./Si.pbe-n-kjpaw_psl.0.1.UPF
     MD5 check sum: b9d333a40e496bef61db012f150758bf
     Pseudo is Projector augmented-wave + core cor, Zval =  4.0
     Generated using "atomic" code by A. Dal Corso  v.5.0.2 svn rev. 9415
     Shape of augmentation charge: PSQ
     Using radial grid of 1141 points,  4 beta functions with: 
                l(1) =   0
                l(2) =   0
                l(3) =   1
                l(4) =   1
     Q(r) pseudized with 0 coefficients 


     atomic species   valence    mass     pseudopotential
        Si             4.00    28.05500     Si( 1.00)

      2 Sym. Ops. (no inversion) found
          (note:  2 additional sym.ops. were found but ignored
           their fractional translations are incommensurate with FFT grid)


   Cartesian axes

     site n.     atom                  positions (alat units)
         1           Si  tau(   1) = (  -0.0250000   0.0250000   0.0000000  )
         2           Si  tau(   2) = (  -0.2500000   0.2500000   0.2500000  )

     number of k points=    24
                       cart. coord. in units 2pi/alat
        k(    1) = (   0.0000000   0.0000000   0.0000000), wk =   0.0312500
        k(    2) = (  -0.2500000   0.2500000  -0.2500000), wk =   0.0625000
        k(    3) = (   0.5000000  -0.5000000   0.5000000), wk =   0.0312500
        k(    4) = (   0.0000000   0.5000000   0.0000000), wk =   0.1250000
        k(    5) = (   0.7500000  -0.2500000   0.7500000), wk =   0.1250000
        k(    6) = (   0.5000000   0.0000000   0.5000000), wk =   0.1250000
        k(    7) = (   0.0000000  -1.0000000   0.0000000), wk =   0.0625000
        k(    8) = (  -0.5000000  -1.0000000   0.0000000), wk =   0.1250000
        k(    9) = (   0.2500000   0.2500000   0.2500000), wk =   0.1250000
        k(   10) = (  -0.2500000   0.2500000   0.2500000), wk =   0.0625000
        k(   11) = (  -0.5000000  -0.5000000  -0.5000000), wk =   0.0625000
        k(   12) = (   0.5000000  -0.5000000  -0.5000000), wk =   0.0312500
        k(   13) = (   0.0000000   0.0000000   0.5000000), wk =   0.0625000
        k(   14) = (  -0.7500000  -0.2500000  -0.7500000), wk =   0.1250000
        k(   15) = (   0.7500000   0.2500000  -0.7500000), wk =   0.1250000
        k(   16) = (   0.2500000  -0.7500000  -0.7500000), wk =   0.1250000
        k(   17) = (  -0.7500000   0.7500000  -0.2500000), wk =   0.0625000
        k(   18) = (  -0.7500000  -0.7500000   0.2500000), wk =   0.1250000
        k(   19) = (   0.7500000  -0.7500000  -0.2500000), wk =   0.0625000
        k(   20) = (   0.5000000   0.0000000  -0.5000000), wk =   0.1250000
        k(   21) = (  -0.5000000   0.5000000   0.0000000), wk =   0.0625000
        k(   22) = (  -0.5000000  -0.5000000   0.0000000), wk =   0.0625000
        k(   23) = (   0.0000000   0.0000000  -1.0000000), wk =   0.0312500
        k(   24) = (   0.0000000   1.0000000  -0.5000000), wk =   0.0625000

     Dense  grid:    36325 G-vectors     FFT dimensions: (  48,  48,  48)

     Largest allocated arrays     est. size (Mb)     dimensions
        Kohn-Sham Wavefunctions         0.28 Mb     (    4584,    4)
        NL pseudopotentials             1.12 Mb     (    4584,   16)
        Each V/rho on FFT grid          1.69 Mb     (  110592)
        Each G-vector array             0.28 Mb     (   36325)
        G-vector shells                 0.00 Mb     (     357)
     Largest temporary arrays     est. size (Mb)     dimensions
        Auxiliary wavefunctions         1.12 Mb     (    4584,   16)
        Each subspace H/S matrix        0.00 Mb     (      16,   16)
        Each <psi_i|beta_j> matrix      0.00 Mb     (      16,    4)
        Arrays for rho mixing          13.50 Mb     (  110592,    8)

     Initial potential from superposition of free atoms

     starting charge    7.99888, renormalised to    8.00000
     Starting wfc are    8 randomized atomic wfcs
     Checking if some PAW data can be deallocated... 

     total cpu time spent up to now is        3.2 secs

     per-process dynamical memory:    30.6 Mb

     Self-consistent Calculation

     iteration #  1     ecut=   100.00 Ry     beta=0.70
     Davidson diagonalization with overlap
     ethr =  1.00E-02,  avg # of iterations =  2.0

     Threshold (ethr) on eigenvalues was too large:
     Diagonalizing with lowered threshold

     Davidson diagonalization with overlap
     ethr =  8.09E-04,  avg # of iterations =  1.0

     total cpu time spent up to now is        9.1 secs

     total energy              =     -93.41821079 Ry
     Harris-Foulkes estimate   =     -93.43455299 Ry
     estimated scf accuracy    <       0.06397100 Ry

     iteration #  2     ecut=   100.00 Ry     beta=0.70
     Davidson diagonalization with overlap
     ethr =  8.00E-04,  avg # of iterations =  1.0

     total cpu time spent up to now is       11.8 secs

     total energy              =     -93.42073516 Ry
     Harris-Foulkes estimate   =     -93.42086948 Ry
     estimated scf accuracy    <       0.00267664 Ry

     iteration #  3     ecut=   100.00 Ry     beta=0.70
     Davidson diagonalization with overlap
     ethr =  3.35E-05,  avg # of iterations =  2.0

     total cpu time spent up to now is       14.9 secs

     total energy              =     -93.42102963 Ry
     Harris-Foulkes estimate   =     -93.42104309 Ry
     estimated scf accuracy    <       0.00006218 Ry

     iteration #  4     ecut=   100.00 Ry     beta=0.70
     Davidson diagonalization with overlap
     ethr =  7.77E-07,  avg # of iterations =  3.0

     total cpu time spent up to now is       18.8 secs

     total energy              =     -93.42106267 Ry
     Harris-Foulkes estimate   =     -93.42106330 Ry
     estimated scf accuracy    <       0.00000189 Ry

     iteration #  5     ecut=   100.00 Ry     beta=0.70
     Davidson diagonalization with overlap
     ethr =  2.36E-08,  avg # of iterations =  3.3

     total cpu time spent up to now is       22.9 secs

     End of self-consistent calculation

          k = 0.0000 0.0000 0.0000 (  4573 PWs)   bands (ev):

    -5.7604   5.3745   6.3015   7.2090

          k =-0.2500 0.2500-0.2500 (  4567 PWs)   bands (ev):

    -5.0062   2.7225   4.9116   5.6493

          k = 0.5000-0.5000 0.5000 (  4512 PWs)   bands (ev):

    -3.7040  -0.1315   4.5340   5.2692

          k = 0.0000 0.5000 0.0000 (  4584 PWs)   bands (ev):

    -4.6863   2.6329   4.1288   4.6642

          k = 0.7500-0.2500 0.7500 (  4555 PWs)   bands (ev):

    -3.2410   0.3377   2.6329   3.8203

          k = 0.5000 0.0000 0.5000 (  4564 PWs)   bands (ev):

    -3.8266   1.1694   2.4469   4.5785

          k = 0.0000-1.0000 0.0000 (  4568 PWs)   bands (ev):

    -2.0347  -1.1760   3.1793   3.6179

          k =-0.5000-1.0000 0.0000 (  4540 PWs)   bands (ev):

    -1.7952  -1.1261   2.2216   2.6046

          k = 0.2500 0.2500 0.2500 (  4567 PWs)   bands (ev):

    -4.9654   2.2714   4.9430   6.1295

          k =-0.2500 0.2500 0.2500 (  4567 PWs)   bands (ev):

    -4.9219   1.8529   5.3789   6.0053

          k =-0.5000-0.5000-0.5000 (  4512 PWs)   bands (ev):

    -3.4603  -0.7204   4.5084   5.6906

          k = 0.5000-0.5000-0.5000 (  4512 PWs)   bands (ev):

    -3.0818  -1.4250   4.8800   5.5009

          k = 0.0000 0.0000 0.5000 (  4584 PWs)   bands (ev):

    -4.6819   2.5011   4.3548   4.6168

          k =-0.7500-0.2500-0.7500 (  4555 PWs)   bands (ev):

    -3.0740  -0.2174   3.0845   3.7922

          k = 0.7500 0.2500-0.7500 (  4555 PWs)   bands (ev):

    -3.0971  -0.0028   2.2830   4.3482

          k = 0.2500-0.7500-0.7500 (  4555 PWs)   bands (ev):

    -2.8795  -0.6147   2.7385   4.2985

          k =-0.7500 0.7500-0.2500 (  4555 PWs)   bands (ev):

    -3.2364   0.4224   2.2557   4.0838

          k =-0.7500-0.7500 0.2500 (  4555 PWs)   bands (ev):

    -3.0694  -0.1700   2.6218   4.2271

          k = 0.7500-0.7500-0.2500 (  4555 PWs)   bands (ev):

    -2.8394  -0.7493   3.1691   3.9921

          k = 0.5000 0.0000-0.5000 (  4564 PWs)   bands (ev):

    -3.6335   0.3289   2.5115   5.3124

          k =-0.5000 0.5000 0.0000 (  4564 PWs)   bands (ev):

    -3.7331   0.6826   2.5491   4.9244

          k =-0.5000-0.5000 0.0000 (  4564 PWs)   bands (ev):

    -3.7380   0.7913   2.3414   5.1067

          k = 0.0000 0.0000-1.0000 (  4568 PWs)   bands (ev):

    -1.7355  -1.5477   3.3854   3.5299

          k = 0.0000 1.0000-0.5000 (  4540 PWs)   bands (ev):

    -1.9019  -0.9692   2.1143   2.6510

     highest occupied level (ev):     7.2090

!    total energy              =     -93.42106368 Ry
     Harris-Foulkes estimate   =     -93.42106378 Ry
     estimated scf accuracy    <       0.00000013 Ry

     total all-electron energy =     -1160.112800 Ry

     The total energy is the sum of the following terms:

     one-electron contribution =       5.73032608 Ry
     hartree contribution      =       1.12449405 Ry
     xc contribution           =     -12.27000722 Ry
     ewald contribution        =     -16.76815038 Ry
     one-center paw contrib.   =     -71.23772621 Ry

     convergence has been achieved in   5 iterations

     Forces acting on atoms (Ry/au):

     atom    1 type  1   force =     0.07466554   -0.07466554   -0.02627096
     atom    2 type  1   force =    -0.07466554    0.07466554    0.02627096

     Total force =     0.153883     Total SCF correction =     0.000074


     entering subroutine stress ...

          total   stress  (Ry/bohr**3)                   (kbar)     P=   38.45
   0.00023330  -0.00011288  -0.00036387         34.32    -16.61    -53.53
  -0.00011288   0.00023330   0.00036387        -16.61     34.32     53.53
  -0.00036387   0.00036387   0.00031750        -53.53     53.53     46.71


     Writing output data file pwscf.save
 
     init_run     :      2.82s CPU      2.87s WALL (       1 calls)
     electrons    :     19.60s CPU     19.72s WALL (       1 calls)
     forces       :      0.40s CPU      0.41s WALL (       1 calls)
     stress       :      1.32s CPU      1.33s WALL (       1 calls)

     Called by init_run:
     wfcinit      :      1.68s CPU      1.70s WALL (       1 calls)
     potinit      :      0.31s CPU      0.32s WALL (       1 calls)

     Called by electrons:
     c_bands      :     14.37s CPU     14.42s WALL (       6 calls)
     sum_band     :      3.37s CPU      3.40s WALL (       6 calls)
     v_of_rho     :      0.79s CPU      0.80s WALL (       6 calls)
     newd         :      0.37s CPU      0.37s WALL (       6 calls)
     mix_rho      :      0.07s CPU      0.08s WALL (       6 calls)

     Called by c_bands:
     init_us_2    :      0.62s CPU      0.63s WALL (     360 calls)
     cegterg      :     13.36s CPU     13.41s WALL (     144 calls)

     Called by *egterg:
     h_psi        :     13.78s CPU     13.83s WALL (     463 calls)
     s_psi        :      0.25s CPU      0.26s WALL (     463 calls)
     g_psi        :      0.12s CPU      0.11s WALL (     295 calls)
     cdiaghg      :      0.06s CPU      0.07s WALL (     415 calls)

     Called by h_psi:
     add_vuspsi   :      0.25s CPU      0.26s WALL (     463 calls)

     General routines
     calbec       :      0.42s CPU      0.41s WALL (     655 calls)
     fft          :      0.61s CPU      0.62s WALL (     105 calls)
     fftw         :     13.98s CPU     14.04s WALL (    4090 calls)
     davcio       :      0.00s CPU      0.00s WALL (      24 calls)
 
     Parallel routines
     fft_scatter  :      1.78s CPU      1.82s WALL (    4195 calls)

     PAW routines
     PAW_pot      :      0.95s CPU      0.96s WALL (       6 calls)
     PAW_symme    :      0.00s CPU      0.00s WALL (      12 calls)
 
     PWSCF        :    24.57s CPU        24.82s WALL

 
   This run was terminated on:   0: 4:33  28Apr2015            

=------------------------------------------------------------------------------=
   JOB DONE.
=------------------------------------------------------------------------------=
