
     Program PWSCF v.5.1 starts on 28Apr2015 at  0: 2:30 

     This program is part of the open-source Quantum ESPRESSO suite
     for quantum simulation of materials; please cite
         "P. Giannozzi et al., J. Phys.:Condens. Matter 21 395502 (2009);
          URL http://www.quantum-espresso.org", 
     in publications or presentations arising from this work. More details at
     http://www.quantum-espresso.org/quote

     Parallel version (MPI), running on     1 processors
     Waiting for input...
     Reading input from standard input
Warning: card &IONS ignored
Warning: card / ignored
Warning: card &CELL ignored
Warning: card / ignored

     Current dimensions of program PWSCF are:
     Max number of different atomic species (ntypx) = 10
     Max number of k-points (npk) =  40000
     Max angular momentum in pseudopotentials (lmaxx) =  3
               file Si.pbe-n-kjpaw_psl.0.1.UPF: wavefunction(s)  3S renormalized

     Subspace diagonalization in iterative solution of the eigenvalue problem:
     a serial algorithm will be used

 
     G-vector sticks info
     --------------------
     sticks:   dense  smooth     PW     G-vecs:    dense   smooth      PW
     Sum         151     151     55                 1139     1139     259
 


     bravais-lattice index     =            2
     lattice parameter (alat)  =      10.2600  a.u.
     unit-cell volume          =     270.0114 (a.u.)^3
     number of atoms/cell      =            2
     number of atomic types    =            1
     number of electrons       =         8.00
     number of Kohn-Sham states=            4
     kinetic-energy cutoff     =      10.0000  Ry
     charge density cutoff     =      40.0000  Ry
     convergence threshold     =      1.0E-06
     mixing beta               =       0.7000
     number of iterations used =            8  plain     mixing
     Exchange-correlation      =  SLA  PW   PBX  PBC ( 1  4  3  4 0)

     celldm(1)=  10.260000  celldm(2)=   0.000000  celldm(3)=   0.000000
     celldm(4)=   0.000000  celldm(5)=   0.000000  celldm(6)=   0.000000

     crystal axes: (cart. coord. in units of alat)
               a(1) = (  -0.500000   0.000000   0.500000 )  
               a(2) = (   0.000000   0.500000   0.500000 )  
               a(3) = (  -0.500000   0.500000   0.000000 )  

     reciprocal axes: (cart. coord. in units 2 pi/alat)
               b(1) = ( -1.000000 -1.000000  1.000000 )  
               b(2) = (  1.000000  1.000000  1.000000 )  
               b(3) = ( -1.000000  1.000000 -1.000000 )  


     PseudoPot. # 1 for Si read from file:
     ./Si.pbe-n-kjpaw_psl.0.1.UPF
     MD5 check sum: b9d333a40e496bef61db012f150758bf
     Pseudo is Projector augmented-wave + core cor, Zval =  4.0
     Generated using "atomic" code by A. Dal Corso  v.5.0.2 svn rev. 9415
     Shape of augmentation charge: PSQ
     Using radial grid of 1141 points,  4 beta functions with: 
                l(1) =   0
                l(2) =   0
                l(3) =   1
                l(4) =   1
     Q(r) pseudized with 0 coefficients 


     atomic species   valence    mass     pseudopotential
        Si             4.00    28.05500     Si( 1.00)

      2 Sym. Ops. (no inversion) found
          (note:  2 additional sym.ops. were found but ignored
           their fractional translations are incommensurate with FFT grid)


   Cartesian axes

     site n.     atom                  positions (alat units)
         1           Si  tau(   1) = (  -0.0250000   0.0250000   0.0000000  )
         2           Si  tau(   2) = (  -0.2500000   0.2500000   0.2500000  )

     number of k points=    24
                       cart. coord. in units 2pi/alat
        k(    1) = (   0.0000000   0.0000000   0.0000000), wk =   0.0312500
        k(    2) = (  -0.2500000   0.2500000  -0.2500000), wk =   0.0625000
        k(    3) = (   0.5000000  -0.5000000   0.5000000), wk =   0.0312500
        k(    4) = (   0.0000000   0.5000000   0.0000000), wk =   0.1250000
        k(    5) = (   0.7500000  -0.2500000   0.7500000), wk =   0.1250000
        k(    6) = (   0.5000000   0.0000000   0.5000000), wk =   0.1250000
        k(    7) = (   0.0000000  -1.0000000   0.0000000), wk =   0.0625000
        k(    8) = (  -0.5000000  -1.0000000   0.0000000), wk =   0.1250000
        k(    9) = (   0.2500000   0.2500000   0.2500000), wk =   0.1250000
        k(   10) = (  -0.2500000   0.2500000   0.2500000), wk =   0.0625000
        k(   11) = (  -0.5000000  -0.5000000  -0.5000000), wk =   0.0625000
        k(   12) = (   0.5000000  -0.5000000  -0.5000000), wk =   0.0312500
        k(   13) = (   0.0000000   0.0000000   0.5000000), wk =   0.0625000
        k(   14) = (  -0.7500000  -0.2500000  -0.7500000), wk =   0.1250000
        k(   15) = (   0.7500000   0.2500000  -0.7500000), wk =   0.1250000
        k(   16) = (   0.2500000  -0.7500000  -0.7500000), wk =   0.1250000
        k(   17) = (  -0.7500000   0.7500000  -0.2500000), wk =   0.0625000
        k(   18) = (  -0.7500000  -0.7500000   0.2500000), wk =   0.1250000
        k(   19) = (   0.7500000  -0.7500000  -0.2500000), wk =   0.0625000
        k(   20) = (   0.5000000   0.0000000  -0.5000000), wk =   0.1250000
        k(   21) = (  -0.5000000   0.5000000   0.0000000), wk =   0.0625000
        k(   22) = (  -0.5000000  -0.5000000   0.0000000), wk =   0.0625000
        k(   23) = (   0.0000000   0.0000000  -1.0000000), wk =   0.0312500
        k(   24) = (   0.0000000   1.0000000  -0.5000000), wk =   0.0625000

     Dense  grid:     1139 G-vectors     FFT dimensions: (  15,  15,  15)

     Largest allocated arrays     est. size (Mb)     dimensions
        Kohn-Sham Wavefunctions         0.01 Mb     (     150,    4)
        NL pseudopotentials             0.04 Mb     (     150,   16)
        Each V/rho on FFT grid          0.05 Mb     (    3375)
        Each G-vector array             0.01 Mb     (    1139)
        G-vector shells                 0.00 Mb     (      37)
     Largest temporary arrays     est. size (Mb)     dimensions
        Auxiliary wavefunctions         0.04 Mb     (     150,   16)
        Each subspace H/S matrix        0.00 Mb     (      16,   16)
        Each <psi_i|beta_j> matrix      0.00 Mb     (      16,    4)
        Arrays for rho mixing           0.41 Mb     (    3375,    8)

     Check: negative/imaginary core charge=   -0.000277    0.000000

     Initial potential from superposition of free atoms

     starting charge    7.99888, renormalised to    8.00000
     Starting wfc are    8 randomized atomic wfcs
     Checking if some PAW data can be deallocated... 

     total cpu time spent up to now is        0.7 secs

     per-process dynamical memory:     5.8 Mb

     Self-consistent Calculation

     iteration #  1     ecut=    10.00 Ry     beta=0.70
     Davidson diagonalization with overlap
     ethr =  1.00E-02,  avg # of iterations =  2.0

     Threshold (ethr) on eigenvalues was too large:
     Diagonalizing with lowered threshold

     Davidson diagonalization with overlap
     ethr =  7.73E-04,  avg # of iterations =  1.0

     total cpu time spent up to now is        1.0 secs

     total energy              =     -93.41443430 Ry
     Harris-Foulkes estimate   =     -93.42906634 Ry
     estimated scf accuracy    <       0.06217037 Ry

     iteration #  2     ecut=    10.00 Ry     beta=0.70
     Davidson diagonalization with overlap
     ethr =  7.77E-04,  avg # of iterations =  1.0

     total cpu time spent up to now is        1.2 secs

     total energy              =     -93.41635933 Ry
     Harris-Foulkes estimate   =     -93.41661685 Ry
     estimated scf accuracy    <       0.00266378 Ry

     iteration #  3     ecut=    10.00 Ry     beta=0.70
     Davidson diagonalization with overlap
     ethr =  3.33E-05,  avg # of iterations =  2.0

     total cpu time spent up to now is        1.5 secs

     total energy              =     -93.41662965 Ry
     Harris-Foulkes estimate   =     -93.41664948 Ry
     estimated scf accuracy    <       0.00005651 Ry

     iteration #  4     ecut=    10.00 Ry     beta=0.70
     Davidson diagonalization with overlap
     ethr =  7.06E-07,  avg # of iterations =  2.5

     total cpu time spent up to now is        1.7 secs

     total energy              =     -93.41665302 Ry
     Harris-Foulkes estimate   =     -93.41665412 Ry
     estimated scf accuracy    <       0.00000283 Ry

     iteration #  5     ecut=    10.00 Ry     beta=0.70
     Davidson diagonalization with overlap
     ethr =  3.54E-08,  avg # of iterations =  2.4

     total cpu time spent up to now is        1.9 secs

     End of self-consistent calculation

          k = 0.0000 0.0000 0.0000 (   137 PWs)   bands (ev):

    -5.7499   5.4519   6.3889   7.3092

          k =-0.2500 0.2500-0.2500 (   150 PWs)   bands (ev):

    -4.9967   2.7676   4.9623   5.7092

          k = 0.5000-0.5000 0.5000 (   138 PWs)   bands (ev):

    -3.6965  -0.0905   4.5800   5.3221

          k = 0.0000 0.5000 0.0000 (   149 PWs)   bands (ev):

    -4.6758   2.6631   4.1745   4.7108

          k = 0.7500-0.2500 0.7500 (   143 PWs)   bands (ev):

    -3.2329   0.3685   2.6802   3.8631

          k = 0.5000 0.0000 0.5000 (   144 PWs)   bands (ev):

    -3.8174   1.1986   2.4966   4.6248

          k = 0.0000-1.0000 0.0000 (   150 PWs)   bands (ev):

    -2.0255  -1.1577   3.2056   3.6502

          k =-0.5000-1.0000 0.0000 (   144 PWs)   bands (ev):

    -1.7847  -1.1083   2.2633   2.6549

          k = 0.2500 0.2500 0.2500 (   150 PWs)   bands (ev):

    -4.9550   2.3080   4.9913   6.1918

          k =-0.2500 0.2500 0.2500 (   150 PWs)   bands (ev):

    -4.9109   1.8844   5.4271   6.0608

          k =-0.5000-0.5000-0.5000 (   138 PWs)   bands (ev):

    -3.4501  -0.6896   4.5493   5.7440

          k = 0.5000-0.5000-0.5000 (   138 PWs)   bands (ev):

    -3.0678  -1.4022   4.9183   5.5465

          k = 0.0000 0.0000 0.5000 (   149 PWs)   bands (ev):

    -4.6713   2.5285   4.4007   4.6667

          k =-0.7500-0.2500-0.7500 (   143 PWs)   bands (ev):

    -3.0633  -0.1945   3.1370   3.8336

          k = 0.7500 0.2500-0.7500 (   143 PWs)   bands (ev):

    -3.0867   0.0218   2.3241   4.3933

          k = 0.2500-0.7500-0.7500 (   143 PWs)   bands (ev):

    -2.8659  -0.5978   2.7843   4.3421

          k =-0.7500 0.7500-0.2500 (   143 PWs)   bands (ev):

    -3.2283   0.4525   2.2999   4.1275

          k =-0.7500-0.7500 0.2500 (   143 PWs)   bands (ev):

    -3.0587  -0.1470   2.6660   4.2743

          k = 0.7500-0.7500-0.2500 (   143 PWs)   bands (ev):

    -2.8253  -0.7346   3.2236   4.0320

          k = 0.5000 0.0000-0.5000 (   144 PWs)   bands (ev):

    -3.6210   0.3484   2.5556   5.3651

          k =-0.5000 0.5000 0.0000 (   144 PWs)   bands (ev):

    -3.7228   0.7068   2.5975   4.9721

          k =-0.5000-0.5000 0.0000 (   144 PWs)   bands (ev):

    -3.7270   0.8157   2.3848   5.1605

          k = 0.0000 0.0000-1.0000 (   150 PWs)   bands (ev):

    -1.7249  -1.5332   3.4146   3.5631

          k = 0.0000 1.0000-0.5000 (   144 PWs)   bands (ev):

    -1.8922  -0.9493   2.1539   2.7023

     highest occupied level (ev):     7.3092

!    total energy              =     -93.41665370 Ry
     Harris-Foulkes estimate   =     -93.41665374 Ry
     estimated scf accuracy    <       0.00000006 Ry

     total all-electron energy =     -1160.108390 Ry

     The total energy is the sum of the following terms:

     one-electron contribution =       5.72535864 Ry
     hartree contribution      =       1.12608884 Ry
     xc contribution           =     -12.27936539 Ry
     ewald contribution        =     -16.76815039 Ry
     one-center paw contrib.   =     -71.22058540 Ry

     convergence has been achieved in   5 iterations

     Forces acting on atoms (Ry/au):

     atom    1 type  1   force =     0.07254146   -0.07254146   -0.02778675
     atom    2 type  1   force =    -0.07254146    0.07254146    0.02778675

     Total force =     0.150311     Total SCF correction =     0.000034


     entering subroutine stress ...

          total   stress  (Ry/bohr**3)                   (kbar)     P=   93.97
   0.00062673  -0.00014161  -0.00039595         92.20    -20.83    -58.25
  -0.00014161   0.00062673   0.00039595        -20.83     92.20     58.25
  -0.00039595   0.00039595   0.00066296        -58.25     58.25     97.53


     Writing output data file pwscf.save
 
     init_run     :      0.44s CPU      0.44s WALL (       1 calls)
     electrons    :      1.16s CPU      1.20s WALL (       1 calls)
     forces       :      0.01s CPU      0.01s WALL (       1 calls)
     stress       :      0.04s CPU      0.04s WALL (       1 calls)

     Called by init_run:
     wfcinit      :      0.03s CPU      0.04s WALL (       1 calls)
     potinit      :      0.16s CPU      0.17s WALL (       1 calls)

     Called by electrons:
     c_bands      :      0.28s CPU      0.31s WALL (       6 calls)
     sum_band     :      0.06s CPU      0.06s WALL (       6 calls)
     v_of_rho     :      0.02s CPU      0.02s WALL (       6 calls)
     newd         :      0.01s CPU      0.01s WALL (       6 calls)
     mix_rho      :      0.00s CPU      0.00s WALL (       6 calls)

     Called by c_bands:
     init_us_2    :      0.02s CPU      0.02s WALL (     360 calls)
     cegterg      :      0.24s CPU      0.27s WALL (     144 calls)

     Called by *egterg:
     h_psi        :      0.22s CPU      0.24s WALL (     429 calls)
     s_psi        :      0.01s CPU      0.01s WALL (     429 calls)
     g_psi        :      0.00s CPU      0.00s WALL (     261 calls)
     cdiaghg      :      0.02s CPU      0.03s WALL (     381 calls)

     Called by h_psi:
     add_vuspsi   :      0.01s CPU      0.01s WALL (     429 calls)

     General routines
     calbec       :      0.02s CPU      0.01s WALL (     621 calls)
     fft          :      0.01s CPU      0.01s WALL (     105 calls)
     fftw         :      0.21s CPU      0.22s WALL (    3942 calls)
     davcio       :      0.00s CPU      0.00s WALL (      24 calls)
 
     Parallel routines
     fft_scatter  :      0.01s CPU      0.02s WALL (    4047 calls)

     PAW routines
     PAW_pot      :      0.95s CPU      0.96s WALL (       6 calls)
     PAW_symme    :      0.00s CPU      0.00s WALL (      12 calls)
 
     PWSCF        :     2.06s CPU         2.17s WALL

 
   This run was terminated on:   0: 2:32  28Apr2015            

=------------------------------------------------------------------------------=
   JOB DONE.
=------------------------------------------------------------------------------=
