
     Program PWSCF v.5.1 starts on 28Apr2015 at  0: 2:32 

     This program is part of the open-source Quantum ESPRESSO suite
     for quantum simulation of materials; please cite
         "P. Giannozzi et al., J. Phys.:Condens. Matter 21 395502 (2009);
          URL http://www.quantum-espresso.org", 
     in publications or presentations arising from this work. More details at
     http://www.quantum-espresso.org/quote

     Parallel version (MPI), running on     1 processors
     Waiting for input...
     Reading input from standard input
Warning: card &IONS ignored
Warning: card / ignored
Warning: card &CELL ignored
Warning: card / ignored

     Current dimensions of program PWSCF are:
     Max number of different atomic species (ntypx) = 10
     Max number of k-points (npk) =  40000
     Max angular momentum in pseudopotentials (lmaxx) =  3
               file Si.pbe-n-kjpaw_psl.0.1.UPF: wavefunction(s)  3S renormalized

     Subspace diagonalization in iterative solution of the eigenvalue problem:
     a serial algorithm will be used

 
     G-vector sticks info
     --------------------
     sticks:   dense  smooth     PW     G-vecs:    dense   smooth      PW
     Sum         295     295     91                 3287     3287     609
 


     bravais-lattice index     =            2
     lattice parameter (alat)  =      10.2600  a.u.
     unit-cell volume          =     270.0114 (a.u.)^3
     number of atoms/cell      =            2
     number of atomic types    =            1
     number of electrons       =         8.00
     number of Kohn-Sham states=            4
     kinetic-energy cutoff     =      20.0000  Ry
     charge density cutoff     =      80.0000  Ry
     convergence threshold     =      1.0E-06
     mixing beta               =       0.7000
     number of iterations used =            8  plain     mixing
     Exchange-correlation      =  SLA  PW   PBX  PBC ( 1  4  3  4 0)

     celldm(1)=  10.260000  celldm(2)=   0.000000  celldm(3)=   0.000000
     celldm(4)=   0.000000  celldm(5)=   0.000000  celldm(6)=   0.000000

     crystal axes: (cart. coord. in units of alat)
               a(1) = (  -0.500000   0.000000   0.500000 )  
               a(2) = (   0.000000   0.500000   0.500000 )  
               a(3) = (  -0.500000   0.500000   0.000000 )  

     reciprocal axes: (cart. coord. in units 2 pi/alat)
               b(1) = ( -1.000000 -1.000000  1.000000 )  
               b(2) = (  1.000000  1.000000  1.000000 )  
               b(3) = ( -1.000000  1.000000 -1.000000 )  


     PseudoPot. # 1 for Si read from file:
     ./Si.pbe-n-kjpaw_psl.0.1.UPF
     MD5 check sum: b9d333a40e496bef61db012f150758bf
     Pseudo is Projector augmented-wave + core cor, Zval =  4.0
     Generated using "atomic" code by A. Dal Corso  v.5.0.2 svn rev. 9415
     Shape of augmentation charge: PSQ
     Using radial grid of 1141 points,  4 beta functions with: 
                l(1) =   0
                l(2) =   0
                l(3) =   1
                l(4) =   1
     Q(r) pseudized with 0 coefficients 


     atomic species   valence    mass     pseudopotential
        Si             4.00    28.05500     Si( 1.00)

      2 Sym. Ops. (no inversion) found
          (note:  2 additional sym.ops. were found but ignored
           their fractional translations are incommensurate with FFT grid)


   Cartesian axes

     site n.     atom                  positions (alat units)
         1           Si  tau(   1) = (  -0.0250000   0.0250000   0.0000000  )
         2           Si  tau(   2) = (  -0.2500000   0.2500000   0.2500000  )

     number of k points=    24
                       cart. coord. in units 2pi/alat
        k(    1) = (   0.0000000   0.0000000   0.0000000), wk =   0.0312500
        k(    2) = (  -0.2500000   0.2500000  -0.2500000), wk =   0.0625000
        k(    3) = (   0.5000000  -0.5000000   0.5000000), wk =   0.0312500
        k(    4) = (   0.0000000   0.5000000   0.0000000), wk =   0.1250000
        k(    5) = (   0.7500000  -0.2500000   0.7500000), wk =   0.1250000
        k(    6) = (   0.5000000   0.0000000   0.5000000), wk =   0.1250000
        k(    7) = (   0.0000000  -1.0000000   0.0000000), wk =   0.0625000
        k(    8) = (  -0.5000000  -1.0000000   0.0000000), wk =   0.1250000
        k(    9) = (   0.2500000   0.2500000   0.2500000), wk =   0.1250000
        k(   10) = (  -0.2500000   0.2500000   0.2500000), wk =   0.0625000
        k(   11) = (  -0.5000000  -0.5000000  -0.5000000), wk =   0.0625000
        k(   12) = (   0.5000000  -0.5000000  -0.5000000), wk =   0.0312500
        k(   13) = (   0.0000000   0.0000000   0.5000000), wk =   0.0625000
        k(   14) = (  -0.7500000  -0.2500000  -0.7500000), wk =   0.1250000
        k(   15) = (   0.7500000   0.2500000  -0.7500000), wk =   0.1250000
        k(   16) = (   0.2500000  -0.7500000  -0.7500000), wk =   0.1250000
        k(   17) = (  -0.7500000   0.7500000  -0.2500000), wk =   0.0625000
        k(   18) = (  -0.7500000  -0.7500000   0.2500000), wk =   0.1250000
        k(   19) = (   0.7500000  -0.7500000  -0.2500000), wk =   0.0625000
        k(   20) = (   0.5000000   0.0000000  -0.5000000), wk =   0.1250000
        k(   21) = (  -0.5000000   0.5000000   0.0000000), wk =   0.0625000
        k(   22) = (  -0.5000000  -0.5000000   0.0000000), wk =   0.0625000
        k(   23) = (   0.0000000   0.0000000  -1.0000000), wk =   0.0312500
        k(   24) = (   0.0000000   1.0000000  -0.5000000), wk =   0.0625000

     Dense  grid:     3287 G-vectors     FFT dimensions: (  24,  24,  24)

     Largest allocated arrays     est. size (Mb)     dimensions
        Kohn-Sham Wavefunctions         0.03 Mb     (     415,    4)
        NL pseudopotentials             0.10 Mb     (     415,   16)
        Each V/rho on FFT grid          0.21 Mb     (   13824)
        Each G-vector array             0.03 Mb     (    3287)
        G-vector shells                 0.00 Mb     (      74)
     Largest temporary arrays     est. size (Mb)     dimensions
        Auxiliary wavefunctions         0.10 Mb     (     415,   16)
        Each subspace H/S matrix        0.00 Mb     (      16,   16)
        Each <psi_i|beta_j> matrix      0.00 Mb     (      16,    4)
        Arrays for rho mixing           1.69 Mb     (   13824,    8)

     Check: negative/imaginary core charge=   -0.000009    0.000000

     Initial potential from superposition of free atoms

     starting charge    7.99888, renormalised to    8.00000
     Starting wfc are    8 randomized atomic wfcs
     Checking if some PAW data can be deallocated... 

     total cpu time spent up to now is        1.0 secs

     per-process dynamical memory:     7.2 Mb

     Self-consistent Calculation

     iteration #  1     ecut=    20.00 Ry     beta=0.70
     Davidson diagonalization with overlap
     ethr =  1.00E-02,  avg # of iterations =  2.0

     Threshold (ethr) on eigenvalues was too large:
     Diagonalizing with lowered threshold

     Davidson diagonalization with overlap
     ethr =  7.97E-04,  avg # of iterations =  1.0

     total cpu time spent up to now is        1.7 secs

     total energy              =     -93.41685736 Ry
     Harris-Foulkes estimate   =     -93.43295132 Ry
     estimated scf accuracy    <       0.06369738 Ry

     iteration #  2     ecut=    20.00 Ry     beta=0.70
     Davidson diagonalization with overlap
     ethr =  7.96E-04,  avg # of iterations =  1.0

     total cpu time spent up to now is        2.1 secs

     total energy              =     -93.41932496 Ry
     Harris-Foulkes estimate   =     -93.41945746 Ry
     estimated scf accuracy    <       0.00266087 Ry

     iteration #  3     ecut=    20.00 Ry     beta=0.70
     Davidson diagonalization with overlap
     ethr =  3.33E-05,  avg # of iterations =  2.0

     total cpu time spent up to now is        2.5 secs

     total energy              =     -93.41960860 Ry
     Harris-Foulkes estimate   =     -93.41962106 Ry
     estimated scf accuracy    <       0.00006042 Ry

     iteration #  4     ecut=    20.00 Ry     beta=0.70
     Davidson diagonalization with overlap
     ethr =  7.55E-07,  avg # of iterations =  3.0

     total cpu time spent up to now is        3.0 secs

     total energy              =     -93.41963862 Ry
     Harris-Foulkes estimate   =     -93.41963919 Ry
     estimated scf accuracy    <       0.00000180 Ry

     iteration #  5     ecut=    20.00 Ry     beta=0.70
     Davidson diagonalization with overlap
     ethr =  2.26E-08,  avg # of iterations =  2.9

     total cpu time spent up to now is        3.5 secs

     End of self-consistent calculation

          k = 0.0000 0.0000 0.0000 (   411 PWs)   bands (ev):

    -5.7603   5.3835   6.3124   7.2205

          k =-0.2500 0.2500-0.2500 (   401 PWs)   bands (ev):

    -5.0061   2.7258   4.9177   5.6564

          k = 0.5000-0.5000 0.5000 (   410 PWs)   bands (ev):

    -3.7035  -0.1306   4.5373   5.2737

          k = 0.0000 0.5000 0.0000 (   415 PWs)   bands (ev):

    -4.6862   2.6362   4.1317   4.6674

          k = 0.7500-0.2500 0.7500 (   412 PWs)   bands (ev):

    -3.2407   0.3391   2.6348   3.8224

          k = 0.5000 0.0000 0.5000 (   407 PWs)   bands (ev):

    -3.8264   1.1711   2.4490   4.5825

          k = 0.0000-1.0000 0.0000 (   412 PWs)   bands (ev):

    -2.0343  -1.1752   3.1801   3.6188

          k =-0.5000-1.0000 0.0000 (   412 PWs)   bands (ev):

    -1.7947  -1.1251   2.2227   2.6064

          k = 0.2500 0.2500 0.2500 (   401 PWs)   bands (ev):

    -4.9653   2.2739   4.9483   6.1364

          k =-0.2500 0.2500 0.2500 (   401 PWs)   bands (ev):

    -4.9218   1.8549   5.3843   6.0115

          k =-0.5000-0.5000-0.5000 (   410 PWs)   bands (ev):

    -3.4598  -0.7202   4.5108   5.6951

          k = 0.5000-0.5000-0.5000 (   410 PWs)   bands (ev):

    -3.0811  -1.4253   4.8823   5.5043

          k = 0.0000 0.0000 0.5000 (   415 PWs)   bands (ev):

    -4.6818   2.5040   4.3576   4.6203

          k =-0.7500-0.2500-0.7500 (   412 PWs)   bands (ev):

    -3.0736  -0.2167   3.0871   3.7941

          k = 0.7500 0.2500-0.7500 (   412 PWs)   bands (ev):

    -3.0968  -0.0018   2.2843   4.3507

          k = 0.2500-0.7500-0.7500 (   412 PWs)   bands (ev):

    -2.8791  -0.6142   2.7402   4.3007

          k =-0.7500 0.7500-0.2500 (   412 PWs)   bands (ev):

    -3.2361   0.4240   2.2571   4.0861

          k =-0.7500-0.7500 0.2500 (   412 PWs)   bands (ev):

    -3.0690  -0.1692   2.6235   4.2297

          k = 0.7500-0.7500-0.2500 (   412 PWs)   bands (ev):

    -2.8390  -0.7489   3.1718   3.9936

          k = 0.5000 0.0000-0.5000 (   407 PWs)   bands (ev):

    -3.6332   0.3297   2.5132   5.3169

          k =-0.5000 0.5000 0.0000 (   407 PWs)   bands (ev):

    -3.7329   0.6839   2.5512   4.9285

          k =-0.5000-0.5000 0.0000 (   407 PWs)   bands (ev):

    -3.7378   0.7926   2.3430   5.1113

          k = 0.0000 0.0000-1.0000 (   412 PWs)   bands (ev):

    -1.7351  -1.5471   3.3861   3.5311

          k = 0.0000 1.0000-0.5000 (   412 PWs)   bands (ev):

    -1.9015  -0.9680   2.1152   2.6528

     highest occupied level (ev):     7.2205

!    total energy              =     -93.41963943 Ry
     Harris-Foulkes estimate   =     -93.41963951 Ry
     estimated scf accuracy    <       0.00000013 Ry

     total all-electron energy =     -1160.111375 Ry

     The total energy is the sum of the following terms:

     one-electron contribution =       5.73220461 Ry
     hartree contribution      =       1.12377890 Ry
     xc contribution           =     -12.26911277 Ry
     ewald contribution        =     -16.76815042 Ry
     one-center paw contrib.   =     -71.23835975 Ry

     convergence has been achieved in   5 iterations

     Forces acting on atoms (Ry/au):

     atom    1 type  1   force =     0.07466765   -0.07466765   -0.02612871
     atom    2 type  1   force =    -0.07466765    0.07466765    0.02612871

     Total force =     0.153839     Total SCF correction =     0.000092


     entering subroutine stress ...

          total   stress  (Ry/bohr**3)                   (kbar)     P=   38.25
   0.00023141  -0.00011217  -0.00036571         34.04    -16.50    -53.80
  -0.00011217   0.00023141   0.00036571        -16.50     34.04     53.80
  -0.00036571   0.00036571   0.00031717        -53.80     53.80     46.66


     Writing output data file pwscf.save
 
     init_run     :      0.67s CPU      0.69s WALL (       1 calls)
     electrons    :      2.53s CPU      2.57s WALL (       1 calls)
     forces       :      0.04s CPU      0.04s WALL (       1 calls)
     stress       :      0.12s CPU      0.12s WALL (       1 calls)

     Called by init_run:
     wfcinit      :      0.16s CPU      0.17s WALL (       1 calls)
     potinit      :      0.18s CPU      0.18s WALL (       1 calls)

     Called by electrons:
     c_bands      :      1.34s CPU      1.38s WALL (       6 calls)
     sum_band     :      0.29s CPU      0.29s WALL (       6 calls)
     v_of_rho     :      0.08s CPU      0.09s WALL (       6 calls)
     newd         :      0.03s CPU      0.03s WALL (       6 calls)
     mix_rho      :      0.01s CPU      0.01s WALL (       6 calls)

     Called by c_bands:
     init_us_2    :      0.04s CPU      0.05s WALL (     360 calls)
     cegterg      :      1.25s CPU      1.28s WALL (     144 calls)

     Called by *egterg:
     h_psi        :      1.27s CPU      1.31s WALL (     454 calls)
     s_psi        :      0.02s CPU      0.02s WALL (     454 calls)
     g_psi        :      0.01s CPU      0.01s WALL (     286 calls)
     cdiaghg      :      0.04s CPU      0.04s WALL (     406 calls)

     Called by h_psi:
     add_vuspsi   :      0.03s CPU      0.02s WALL (     454 calls)

     General routines
     calbec       :      0.03s CPU      0.04s WALL (     646 calls)
     fft          :      0.06s CPU      0.05s WALL (     105 calls)
     fftw         :      1.31s CPU      1.34s WALL (    4040 calls)
     davcio       :      0.00s CPU      0.00s WALL (      24 calls)
 
     Parallel routines
     fft_scatter  :      0.06s CPU      0.08s WALL (    4145 calls)

     PAW routines
     PAW_pot      :      0.95s CPU      0.96s WALL (       6 calls)
     PAW_symme    :      0.00s CPU      0.00s WALL (      12 calls)
 
     PWSCF        :     3.76s CPU         3.87s WALL

 
   This run was terminated on:   0: 2:36  28Apr2015            

=------------------------------------------------------------------------------=
   JOB DONE.
=------------------------------------------------------------------------------=
