
     Program PWSCF v.5.1 starts on 28Apr2015 at  0: 2:36 

     This program is part of the open-source Quantum ESPRESSO suite
     for quantum simulation of materials; please cite
         "P. Giannozzi et al., J. Phys.:Condens. Matter 21 395502 (2009);
          URL http://www.quantum-espresso.org", 
     in publications or presentations arising from this work. More details at
     http://www.quantum-espresso.org/quote

     Parallel version (MPI), running on     1 processors
     Waiting for input...
     Reading input from standard input
Warning: card &IONS ignored
Warning: card / ignored
Warning: card &CELL ignored
Warning: card / ignored

     Current dimensions of program PWSCF are:
     Max number of different atomic species (ntypx) = 10
     Max number of k-points (npk) =  40000
     Max angular momentum in pseudopotentials (lmaxx) =  3
               file Si.pbe-n-kjpaw_psl.0.1.UPF: wavefunction(s)  3S renormalized

     Subspace diagonalization in iterative solution of the eigenvalue problem:
     a serial algorithm will be used

 
     G-vector sticks info
     --------------------
     sticks:   dense  smooth     PW     G-vecs:    dense   smooth      PW
     Sum         433     433    139                 5961     5961    1067
 


     bravais-lattice index     =            2
     lattice parameter (alat)  =      10.2600  a.u.
     unit-cell volume          =     270.0114 (a.u.)^3
     number of atoms/cell      =            2
     number of atomic types    =            1
     number of electrons       =         8.00
     number of Kohn-Sham states=            4
     kinetic-energy cutoff     =      30.0000  Ry
     charge density cutoff     =     120.0000  Ry
     convergence threshold     =      1.0E-06
     mixing beta               =       0.7000
     number of iterations used =            8  plain     mixing
     Exchange-correlation      =  SLA  PW   PBX  PBC ( 1  4  3  4 0)

     celldm(1)=  10.260000  celldm(2)=   0.000000  celldm(3)=   0.000000
     celldm(4)=   0.000000  celldm(5)=   0.000000  celldm(6)=   0.000000

     crystal axes: (cart. coord. in units of alat)
               a(1) = (  -0.500000   0.000000   0.500000 )  
               a(2) = (   0.000000   0.500000   0.500000 )  
               a(3) = (  -0.500000   0.500000   0.000000 )  

     reciprocal axes: (cart. coord. in units 2 pi/alat)
               b(1) = ( -1.000000 -1.000000  1.000000 )  
               b(2) = (  1.000000  1.000000  1.000000 )  
               b(3) = ( -1.000000  1.000000 -1.000000 )  


     PseudoPot. # 1 for Si read from file:
     ./Si.pbe-n-kjpaw_psl.0.1.UPF
     MD5 check sum: b9d333a40e496bef61db012f150758bf
     Pseudo is Projector augmented-wave + core cor, Zval =  4.0
     Generated using "atomic" code by A. Dal Corso  v.5.0.2 svn rev. 9415
     Shape of augmentation charge: PSQ
     Using radial grid of 1141 points,  4 beta functions with: 
                l(1) =   0
                l(2) =   0
                l(3) =   1
                l(4) =   1
     Q(r) pseudized with 0 coefficients 


     atomic species   valence    mass     pseudopotential
        Si             4.00    28.05500     Si( 1.00)

      2 Sym. Ops. (no inversion) found
          (note:  2 additional sym.ops. were found but ignored
           their fractional translations are incommensurate with FFT grid)


   Cartesian axes

     site n.     atom                  positions (alat units)
         1           Si  tau(   1) = (  -0.0250000   0.0250000   0.0000000  )
         2           Si  tau(   2) = (  -0.2500000   0.2500000   0.2500000  )

     number of k points=    24
                       cart. coord. in units 2pi/alat
        k(    1) = (   0.0000000   0.0000000   0.0000000), wk =   0.0312500
        k(    2) = (  -0.2500000   0.2500000  -0.2500000), wk =   0.0625000
        k(    3) = (   0.5000000  -0.5000000   0.5000000), wk =   0.0312500
        k(    4) = (   0.0000000   0.5000000   0.0000000), wk =   0.1250000
        k(    5) = (   0.7500000  -0.2500000   0.7500000), wk =   0.1250000
        k(    6) = (   0.5000000   0.0000000   0.5000000), wk =   0.1250000
        k(    7) = (   0.0000000  -1.0000000   0.0000000), wk =   0.0625000
        k(    8) = (  -0.5000000  -1.0000000   0.0000000), wk =   0.1250000
        k(    9) = (   0.2500000   0.2500000   0.2500000), wk =   0.1250000
        k(   10) = (  -0.2500000   0.2500000   0.2500000), wk =   0.0625000
        k(   11) = (  -0.5000000  -0.5000000  -0.5000000), wk =   0.0625000
        k(   12) = (   0.5000000  -0.5000000  -0.5000000), wk =   0.0312500
        k(   13) = (   0.0000000   0.0000000   0.5000000), wk =   0.0625000
        k(   14) = (  -0.7500000  -0.2500000  -0.7500000), wk =   0.1250000
        k(   15) = (   0.7500000   0.2500000  -0.7500000), wk =   0.1250000
        k(   16) = (   0.2500000  -0.7500000  -0.7500000), wk =   0.1250000
        k(   17) = (  -0.7500000   0.7500000  -0.2500000), wk =   0.0625000
        k(   18) = (  -0.7500000  -0.7500000   0.2500000), wk =   0.1250000
        k(   19) = (   0.7500000  -0.7500000  -0.2500000), wk =   0.0625000
        k(   20) = (   0.5000000   0.0000000  -0.5000000), wk =   0.1250000
        k(   21) = (  -0.5000000   0.5000000   0.0000000), wk =   0.0625000
        k(   22) = (  -0.5000000  -0.5000000   0.0000000), wk =   0.0625000
        k(   23) = (   0.0000000   0.0000000  -1.0000000), wk =   0.0312500
        k(   24) = (   0.0000000   1.0000000  -0.5000000), wk =   0.0625000

     Dense  grid:     5961 G-vectors     FFT dimensions: (  25,  25,  25)

     Largest allocated arrays     est. size (Mb)     dimensions
        Kohn-Sham Wavefunctions         0.05 Mb     (     754,    4)
        NL pseudopotentials             0.18 Mb     (     754,   16)
        Each V/rho on FFT grid          0.24 Mb     (   15625)
        Each G-vector array             0.05 Mb     (    5961)
        G-vector shells                 0.00 Mb     (     108)
     Largest temporary arrays     est. size (Mb)     dimensions
        Auxiliary wavefunctions         0.18 Mb     (     754,   16)
        Each subspace H/S matrix        0.00 Mb     (      16,   16)
        Each <psi_i|beta_j> matrix      0.00 Mb     (      16,    4)
        Arrays for rho mixing           1.91 Mb     (   15625,    8)

     Check: negative/imaginary core charge=   -0.000004    0.000000

     Initial potential from superposition of free atoms

     starting charge    7.99888, renormalised to    8.00000
     Starting wfc are    8 randomized atomic wfcs
     Checking if some PAW data can be deallocated... 

     total cpu time spent up to now is        1.1 secs

     per-process dynamical memory:     8.1 Mb

     Self-consistent Calculation

     iteration #  1     ecut=    30.00 Ry     beta=0.70
     Davidson diagonalization with overlap
     ethr =  1.00E-02,  avg # of iterations =  2.0

     Threshold (ethr) on eigenvalues was too large:
     Diagonalizing with lowered threshold

     Davidson diagonalization with overlap
     ethr =  8.04E-04,  avg # of iterations =  1.0

     total cpu time spent up to now is        2.2 secs

     total energy              =     -93.41802009 Ry
     Harris-Foulkes estimate   =     -93.43436422 Ry
     estimated scf accuracy    <       0.06406407 Ry

     iteration #  2     ecut=    30.00 Ry     beta=0.70
     Davidson diagonalization with overlap
     ethr =  8.01E-04,  avg # of iterations =  1.0

     total cpu time spent up to now is        2.7 secs

     total energy              =     -93.42054660 Ry
     Harris-Foulkes estimate   =     -93.42067996 Ry
     estimated scf accuracy    <       0.00266209 Ry

     iteration #  3     ecut=    30.00 Ry     beta=0.70
     Davidson diagonalization with overlap
     ethr =  3.33E-05,  avg # of iterations =  2.0

     total cpu time spent up to now is        3.3 secs

     total energy              =     -93.42084057 Ry
     Harris-Foulkes estimate   =     -93.42085398 Ry
     estimated scf accuracy    <       0.00006238 Ry

     iteration #  4     ecut=    30.00 Ry     beta=0.70
     Davidson diagonalization with overlap
     ethr =  7.80E-07,  avg # of iterations =  2.9

     total cpu time spent up to now is        4.0 secs

     total energy              =     -93.42087304 Ry
     Harris-Foulkes estimate   =     -93.42087370 Ry
     estimated scf accuracy    <       0.00000200 Ry

     iteration #  5     ecut=    30.00 Ry     beta=0.70
     Davidson diagonalization with overlap
     ethr =  2.50E-08,  avg # of iterations =  3.1

     total cpu time spent up to now is        4.8 secs

     End of self-consistent calculation

          k = 0.0000 0.0000 0.0000 (   725 PWs)   bands (ev):

    -5.7598   5.3759   6.3029   7.2106

          k =-0.2500 0.2500-0.2500 (   754 PWs)   bands (ev):

    -5.0056   2.7231   4.9128   5.6504

          k = 0.5000-0.5000 0.5000 (   754 PWs)   bands (ev):

    -3.7033  -0.1311   4.5351   5.2701

          k = 0.0000 0.5000 0.0000 (   729 PWs)   bands (ev):

    -4.6857   2.6339   4.1298   4.6650

          k = 0.7500-0.2500 0.7500 (   748 PWs)   bands (ev):

    -3.2403   0.3382   2.6336   3.8212

          k = 0.5000 0.0000 0.5000 (   754 PWs)   bands (ev):

    -3.8259   1.1700   2.4475   4.5796

          k = 0.0000-1.0000 0.0000 (   740 PWs)   bands (ev):

    -2.0339  -1.1754   3.1801   3.6184

          k =-0.5000-1.0000 0.0000 (   744 PWs)   bands (ev):

    -1.7944  -1.1255   2.2222   2.6052

          k = 0.2500 0.2500 0.2500 (   754 PWs)   bands (ev):

    -4.9648   2.2722   4.9442   6.1305

          k =-0.2500 0.2500 0.2500 (   754 PWs)   bands (ev):

    -4.9213   1.8539   5.3799   6.0062

          k =-0.5000-0.5000-0.5000 (   754 PWs)   bands (ev):

    -3.4596  -0.7199   4.5094   5.6914

          k = 0.5000-0.5000-0.5000 (   754 PWs)   bands (ev):

    -3.0812  -1.4242   4.8809   5.5016

          k = 0.0000 0.0000 0.5000 (   729 PWs)   bands (ev):

    -4.6812   2.5022   4.3557   4.6176

          k =-0.7500-0.2500-0.7500 (   748 PWs)   bands (ev):

    -3.0733  -0.2167   3.0851   3.7931

          k = 0.7500 0.2500-0.7500 (   748 PWs)   bands (ev):

    -3.0964  -0.0021   2.2838   4.3489

          k = 0.2500-0.7500-0.7500 (   748 PWs)   bands (ev):

    -2.8788  -0.6139   2.7391   4.2992

          k =-0.7500 0.7500-0.2500 (   748 PWs)   bands (ev):

    -3.2357   0.4230   2.2564   4.0846

          k =-0.7500-0.7500 0.2500 (   748 PWs)   bands (ev):

    -3.0687  -0.1693   2.6226   4.2278

          k = 0.7500-0.7500-0.2500 (   748 PWs)   bands (ev):

    -2.8387  -0.7484   3.1697   3.9928

          k = 0.5000 0.0000-0.5000 (   754 PWs)   bands (ev):

    -3.6329   0.3297   2.5122   5.3132

          k =-0.5000 0.5000 0.0000 (   754 PWs)   bands (ev):

    -3.7325   0.6834   2.5496   4.9253

          k =-0.5000-0.5000 0.0000 (   754 PWs)   bands (ev):

    -3.7373   0.7920   2.3422   5.1075

          k = 0.0000 0.0000-1.0000 (   740 PWs)   bands (ev):

    -1.7347  -1.5471   3.3861   3.5305

          k = 0.0000 1.0000-0.5000 (   744 PWs)   bands (ev):

    -1.9011  -0.9685   2.1150   2.6515

     highest occupied level (ev):     7.2106

!    total energy              =     -93.42087406 Ry
     Harris-Foulkes estimate   =     -93.42087417 Ry
     estimated scf accuracy    <       0.00000014 Ry

     total all-electron energy =     -1160.112610 Ry

     The total energy is the sum of the following terms:

     one-electron contribution =       5.73076192 Ry
     hartree contribution      =       1.12433030 Ry
     xc contribution           =     -12.26990535 Ry
     ewald contribution        =     -16.76815042 Ry
     one-center paw contrib.   =     -71.23791051 Ry

     convergence has been achieved in   5 iterations

     Forces acting on atoms (Ry/au):

     atom    1 type  1   force =     0.07461413   -0.07461413   -0.02622967
     atom    2 type  1   force =    -0.07461413    0.07461413    0.02622967

     Total force =     0.153770     Total SCF correction =     0.000091


     entering subroutine stress ...

          total   stress  (Ry/bohr**3)                   (kbar)     P=   38.26
   0.00023199  -0.00011336  -0.00036399         34.13    -16.68    -53.54
  -0.00011336   0.00023199   0.00036399        -16.68     34.13     53.54
  -0.00036399   0.00036399   0.00031631        -53.54     53.54     46.53


     Writing output data file pwscf.save
 
     init_run     :      0.84s CPU      0.85s WALL (       1 calls)
     electrons    :      3.60s CPU      3.64s WALL (       1 calls)
     forces       :      0.06s CPU      0.06s WALL (       1 calls)
     stress       :      0.19s CPU      0.20s WALL (       1 calls)

     Called by init_run:
     wfcinit      :      0.26s CPU      0.26s WALL (       1 calls)
     potinit      :      0.18s CPU      0.18s WALL (       1 calls)

     Called by electrons:
     c_bands      :      2.20s CPU      2.22s WALL (       6 calls)
     sum_band     :      0.47s CPU      0.48s WALL (       6 calls)
     v_of_rho     :      0.11s CPU      0.11s WALL (       6 calls)
     newd         :      0.05s CPU      0.05s WALL (       6 calls)
     mix_rho      :      0.01s CPU      0.01s WALL (       6 calls)

     Called by c_bands:
     init_us_2    :      0.09s CPU      0.09s WALL (     360 calls)
     cegterg      :      2.04s CPU      2.06s WALL (     144 calls)

     Called by *egterg:
     h_psi        :      2.10s CPU      2.10s WALL (     456 calls)
     s_psi        :      0.03s CPU      0.04s WALL (     456 calls)
     g_psi        :      0.01s CPU      0.02s WALL (     288 calls)
     cdiaghg      :      0.04s CPU      0.04s WALL (     408 calls)

     Called by h_psi:
     add_vuspsi   :      0.04s CPU      0.04s WALL (     456 calls)

     General routines
     calbec       :      0.07s CPU      0.06s WALL (     648 calls)
     fft          :      0.09s CPU      0.09s WALL (     105 calls)
     fftw         :      2.21s CPU      2.21s WALL (    4058 calls)
     davcio       :      0.00s CPU      0.00s WALL (      24 calls)
 
     Parallel routines
     fft_scatter  :      0.09s CPU      0.10s WALL (    4163 calls)

     PAW routines
     PAW_pot      :      0.95s CPU      0.95s WALL (       6 calls)
     PAW_symme    :      0.00s CPU      0.00s WALL (      12 calls)
 
     PWSCF        :     5.10s CPU         5.20s WALL

 
   This run was terminated on:   0: 2:42  28Apr2015            

=------------------------------------------------------------------------------=
   JOB DONE.
=------------------------------------------------------------------------------=
