
     Program PWSCF v.5.1 starts on 28Apr2015 at  0: 2:42 

     This program is part of the open-source Quantum ESPRESSO suite
     for quantum simulation of materials; please cite
         "P. Giannozzi et al., J. Phys.:Condens. Matter 21 395502 (2009);
          URL http://www.quantum-espresso.org", 
     in publications or presentations arising from this work. More details at
     http://www.quantum-espresso.org/quote

     Parallel version (MPI), running on     1 processors
     Waiting for input...
     Reading input from standard input
Warning: card &IONS ignored
Warning: card / ignored
Warning: card &CELL ignored
Warning: card / ignored

     Current dimensions of program PWSCF are:
     Max number of different atomic species (ntypx) = 10
     Max number of k-points (npk) =  40000
     Max angular momentum in pseudopotentials (lmaxx) =  3
               file Si.pbe-n-kjpaw_psl.0.1.UPF: wavefunction(s)  3S renormalized

     Subspace diagonalization in iterative solution of the eigenvalue problem:
     a serial algorithm will be used

 
     G-vector sticks info
     --------------------
     sticks:   dense  smooth     PW     G-vecs:    dense   smooth      PW
     Sum         583     583    187                 9257     9257    1591
 


     bravais-lattice index     =            2
     lattice parameter (alat)  =      10.2600  a.u.
     unit-cell volume          =     270.0114 (a.u.)^3
     number of atoms/cell      =            2
     number of atomic types    =            1
     number of electrons       =         8.00
     number of Kohn-Sham states=            4
     kinetic-energy cutoff     =      40.0000  Ry
     charge density cutoff     =     160.0000  Ry
     convergence threshold     =      1.0E-06
     mixing beta               =       0.7000
     number of iterations used =            8  plain     mixing
     Exchange-correlation      =  SLA  PW   PBX  PBC ( 1  4  3  4 0)

     celldm(1)=  10.260000  celldm(2)=   0.000000  celldm(3)=   0.000000
     celldm(4)=   0.000000  celldm(5)=   0.000000  celldm(6)=   0.000000

     crystal axes: (cart. coord. in units of alat)
               a(1) = (  -0.500000   0.000000   0.500000 )  
               a(2) = (   0.000000   0.500000   0.500000 )  
               a(3) = (  -0.500000   0.500000   0.000000 )  

     reciprocal axes: (cart. coord. in units 2 pi/alat)
               b(1) = ( -1.000000 -1.000000  1.000000 )  
               b(2) = (  1.000000  1.000000  1.000000 )  
               b(3) = ( -1.000000  1.000000 -1.000000 )  


     PseudoPot. # 1 for Si read from file:
     ./Si.pbe-n-kjpaw_psl.0.1.UPF
     MD5 check sum: b9d333a40e496bef61db012f150758bf
     Pseudo is Projector augmented-wave + core cor, Zval =  4.0
     Generated using "atomic" code by A. Dal Corso  v.5.0.2 svn rev. 9415
     Shape of augmentation charge: PSQ
     Using radial grid of 1141 points,  4 beta functions with: 
                l(1) =   0
                l(2) =   0
                l(3) =   1
                l(4) =   1
     Q(r) pseudized with 0 coefficients 


     atomic species   valence    mass     pseudopotential
        Si             4.00    28.05500     Si( 1.00)

      2 Sym. Ops. (no inversion) found
          (note:  2 additional sym.ops. were found but ignored
           their fractional translations are incommensurate with FFT grid)


   Cartesian axes

     site n.     atom                  positions (alat units)
         1           Si  tau(   1) = (  -0.0250000   0.0250000   0.0000000  )
         2           Si  tau(   2) = (  -0.2500000   0.2500000   0.2500000  )

     number of k points=    24
                       cart. coord. in units 2pi/alat
        k(    1) = (   0.0000000   0.0000000   0.0000000), wk =   0.0312500
        k(    2) = (  -0.2500000   0.2500000  -0.2500000), wk =   0.0625000
        k(    3) = (   0.5000000  -0.5000000   0.5000000), wk =   0.0312500
        k(    4) = (   0.0000000   0.5000000   0.0000000), wk =   0.1250000
        k(    5) = (   0.7500000  -0.2500000   0.7500000), wk =   0.1250000
        k(    6) = (   0.5000000   0.0000000   0.5000000), wk =   0.1250000
        k(    7) = (   0.0000000  -1.0000000   0.0000000), wk =   0.0625000
        k(    8) = (  -0.5000000  -1.0000000   0.0000000), wk =   0.1250000
        k(    9) = (   0.2500000   0.2500000   0.2500000), wk =   0.1250000
        k(   10) = (  -0.2500000   0.2500000   0.2500000), wk =   0.0625000
        k(   11) = (  -0.5000000  -0.5000000  -0.5000000), wk =   0.0625000
        k(   12) = (   0.5000000  -0.5000000  -0.5000000), wk =   0.0312500
        k(   13) = (   0.0000000   0.0000000   0.5000000), wk =   0.0625000
        k(   14) = (  -0.7500000  -0.2500000  -0.7500000), wk =   0.1250000
        k(   15) = (   0.7500000   0.2500000  -0.7500000), wk =   0.1250000
        k(   16) = (   0.2500000  -0.7500000  -0.7500000), wk =   0.1250000
        k(   17) = (  -0.7500000   0.7500000  -0.2500000), wk =   0.0625000
        k(   18) = (  -0.7500000  -0.7500000   0.2500000), wk =   0.1250000
        k(   19) = (   0.7500000  -0.7500000  -0.2500000), wk =   0.0625000
        k(   20) = (   0.5000000   0.0000000  -0.5000000), wk =   0.1250000
        k(   21) = (  -0.5000000   0.5000000   0.0000000), wk =   0.0625000
        k(   22) = (  -0.5000000  -0.5000000   0.0000000), wk =   0.0625000
        k(   23) = (   0.0000000   0.0000000  -1.0000000), wk =   0.0312500
        k(   24) = (   0.0000000   1.0000000  -0.5000000), wk =   0.0625000

     Dense  grid:     9257 G-vectors     FFT dimensions: (  30,  30,  30)

     Largest allocated arrays     est. size (Mb)     dimensions
        Kohn-Sham Wavefunctions         0.07 Mb     (    1174,    4)
        NL pseudopotentials             0.29 Mb     (    1174,   16)
        Each V/rho on FFT grid          0.41 Mb     (   27000)
        Each G-vector array             0.07 Mb     (    9257)
        G-vector shells                 0.00 Mb     (     144)
     Largest temporary arrays     est. size (Mb)     dimensions
        Auxiliary wavefunctions         0.29 Mb     (    1174,   16)
        Each subspace H/S matrix        0.00 Mb     (      16,   16)
        Each <psi_i|beta_j> matrix      0.00 Mb     (      16,    4)
        Arrays for rho mixing           3.30 Mb     (   27000,    8)

     Check: negative/imaginary core charge=   -0.000003    0.000000

     Initial potential from superposition of free atoms

     starting charge    7.99888, renormalised to    8.00000
     Starting wfc are    8 randomized atomic wfcs
     Checking if some PAW data can be deallocated... 

     total cpu time spent up to now is        1.4 secs

     per-process dynamical memory:    10.0 Mb

     Self-consistent Calculation

     iteration #  1     ecut=    40.00 Ry     beta=0.70
     Davidson diagonalization with overlap
     ethr =  1.00E-02,  avg # of iterations =  2.0

     Threshold (ethr) on eigenvalues was too large:
     Diagonalizing with lowered threshold

     Davidson diagonalization with overlap
     ethr =  8.04E-04,  avg # of iterations =  1.0

     total cpu time spent up to now is        2.8 secs

     total energy              =     -93.41818976 Ry
     Harris-Foulkes estimate   =     -93.43454991 Ry
     estimated scf accuracy    <       0.06407946 Ry

     iteration #  2     ecut=    40.00 Ry     beta=0.70
     Davidson diagonalization with overlap
     ethr =  8.01E-04,  avg # of iterations =  1.0

     total cpu time spent up to now is        3.6 secs

     total energy              =     -93.42072283 Ry
     Harris-Foulkes estimate   =     -93.42085622 Ry
     estimated scf accuracy    <       0.00266374 Ry

     iteration #  3     ecut=    40.00 Ry     beta=0.70
     Davidson diagonalization with overlap
     ethr =  3.33E-05,  avg # of iterations =  2.0

     total cpu time spent up to now is        4.4 secs

     total energy              =     -93.42101486 Ry
     Harris-Foulkes estimate   =     -93.42102766 Ry
     estimated scf accuracy    <       0.00006177 Ry

     iteration #  4     ecut=    40.00 Ry     beta=0.70
     Davidson diagonalization with overlap
     ethr =  7.72E-07,  avg # of iterations =  3.0

     total cpu time spent up to now is        5.4 secs

     total energy              =     -93.42104895 Ry
     Harris-Foulkes estimate   =     -93.42104953 Ry
     estimated scf accuracy    <       0.00000177 Ry

     iteration #  5     ecut=    40.00 Ry     beta=0.70
     Davidson diagonalization with overlap
     ethr =  2.21E-08,  avg # of iterations =  3.3

     total cpu time spent up to now is        6.4 secs

     End of self-consistent calculation

          k = 0.0000 0.0000 0.0000 (  1139 PWs)   bands (ev):

    -5.7601   5.3750   6.3018   7.2093

          k =-0.2500 0.2500-0.2500 (  1152 PWs)   bands (ev):

    -5.0060   2.7227   4.9120   5.6496

          k = 0.5000-0.5000 0.5000 (  1158 PWs)   bands (ev):

    -3.7037  -0.1313   4.5345   5.2694

          k = 0.0000 0.5000 0.0000 (  1174 PWs)   bands (ev):

    -4.6860   2.6333   4.1290   4.6644

          k = 0.7500-0.2500 0.7500 (  1150 PWs)   bands (ev):

    -3.2407   0.3379   2.6331   3.8206

          k = 0.5000 0.0000 0.5000 (  1159 PWs)   bands (ev):

    -3.8263   1.1696   2.4471   4.5789

          k = 0.0000-1.0000 0.0000 (  1162 PWs)   bands (ev):

    -2.0343  -1.1758   3.1796   3.6180

          k =-0.5000-1.0000 0.0000 (  1144 PWs)   bands (ev):

    -1.7948  -1.1258   2.2218   2.6048

          k = 0.2500 0.2500 0.2500 (  1152 PWs)   bands (ev):

    -4.9651   2.2717   4.9434   6.1298

          k =-0.2500 0.2500 0.2500 (  1152 PWs)   bands (ev):

    -4.9216   1.8533   5.3791   6.0056

          k =-0.5000-0.5000-0.5000 (  1158 PWs)   bands (ev):

    -3.4599  -0.7202   4.5087   5.6908

          k = 0.5000-0.5000-0.5000 (  1158 PWs)   bands (ev):

    -3.0815  -1.4246   4.8803   5.5011

          k = 0.0000 0.0000 0.5000 (  1174 PWs)   bands (ev):

    -4.6816   2.5015   4.3550   4.6170

          k =-0.7500-0.2500-0.7500 (  1150 PWs)   bands (ev):

    -3.0737  -0.2171   3.0848   3.7925

          k = 0.7500 0.2500-0.7500 (  1150 PWs)   bands (ev):

    -3.0968  -0.0026   2.2833   4.3484

          k = 0.2500-0.7500-0.7500 (  1150 PWs)   bands (ev):

    -2.8792  -0.6144   2.7387   4.2987

          k =-0.7500 0.7500-0.2500 (  1150 PWs)   bands (ev):

    -3.2361   0.4227   2.2560   4.0840

          k =-0.7500-0.7500 0.2500 (  1150 PWs)   bands (ev):

    -3.0690  -0.1697   2.6221   4.2273

          k = 0.7500-0.7500-0.2500 (  1150 PWs)   bands (ev):

    -2.8391  -0.7489   3.1693   3.9923

          k = 0.5000 0.0000-0.5000 (  1159 PWs)   bands (ev):

    -3.6332   0.3293   2.5117   5.3126

          k =-0.5000 0.5000 0.0000 (  1159 PWs)   bands (ev):

    -3.7329   0.6829   2.5493   4.9246

          k =-0.5000-0.5000 0.0000 (  1159 PWs)   bands (ev):

    -3.7377   0.7915   2.3417   5.1070

          k = 0.0000 0.0000-1.0000 (  1162 PWs)   bands (ev):

    -1.7351  -1.5475   3.3856   3.5301

          k = 0.0000 1.0000-0.5000 (  1144 PWs)   bands (ev):

    -1.9015  -0.9689   2.1145   2.6512

     highest occupied level (ev):     7.2093

!    total energy              =     -93.42104993 Ry
     Harris-Foulkes estimate   =     -93.42105001 Ry
     estimated scf accuracy    <       0.00000011 Ry

     total all-electron energy =     -1160.112786 Ry

     The total energy is the sum of the following terms:

     one-electron contribution =       5.73055005 Ry
     hartree contribution      =       1.12443075 Ry
     xc contribution           =     -12.27015580 Ry
     ewald contribution        =     -16.76815041 Ry
     one-center paw contrib.   =     -71.23772451 Ry

     convergence has been achieved in   5 iterations

     Forces acting on atoms (Ry/au):

     atom    1 type  1   force =     0.07464220   -0.07464220   -0.02623830
     atom    2 type  1   force =    -0.07464220    0.07464220    0.02623830

     Total force =     0.153827     Total SCF correction =     0.000090


     entering subroutine stress ...

          total   stress  (Ry/bohr**3)                   (kbar)     P=   38.64
   0.00023468  -0.00011324  -0.00036390         34.52    -16.66    -53.53
  -0.00011324   0.00023468   0.00036390        -16.66     34.52     53.53
  -0.00036390   0.00036390   0.00031869        -53.53     53.53     46.88


     Writing output data file pwscf.save
 
     init_run     :      1.04s CPU      1.06s WALL (       1 calls)
     electrons    :      5.03s CPU      5.10s WALL (       1 calls)
     forces       :      0.10s CPU      0.10s WALL (       1 calls)
     stress       :      0.31s CPU      0.31s WALL (       1 calls)

     Called by init_run:
     wfcinit      :      0.38s CPU      0.39s WALL (       1 calls)
     potinit      :      0.19s CPU      0.20s WALL (       1 calls)

     Called by electrons:
     c_bands      :      3.28s CPU      3.32s WALL (       6 calls)
     sum_band     :      0.72s CPU      0.72s WALL (       6 calls)
     v_of_rho     :      0.18s CPU      0.18s WALL (       6 calls)
     newd         :      0.08s CPU      0.09s WALL (       6 calls)
     mix_rho      :      0.02s CPU      0.02s WALL (       6 calls)

     Called by c_bands:
     init_us_2    :      0.16s CPU      0.15s WALL (     360 calls)
     cegterg      :      3.03s CPU      3.07s WALL (     144 calls)

     Called by *egterg:
     h_psi        :      3.11s CPU      3.14s WALL (     464 calls)
     s_psi        :      0.06s CPU      0.06s WALL (     464 calls)
     g_psi        :      0.02s CPU      0.03s WALL (     296 calls)
     cdiaghg      :      0.03s CPU      0.04s WALL (     416 calls)

     Called by h_psi:
     add_vuspsi   :      0.07s CPU      0.06s WALL (     464 calls)

     General routines
     calbec       :      0.10s CPU      0.10s WALL (     656 calls)
     fft          :      0.13s CPU      0.13s WALL (     105 calls)
     fftw         :      3.18s CPU      3.23s WALL (    4078 calls)
     davcio       :      0.00s CPU      0.00s WALL (      24 calls)
 
     Parallel routines
     fft_scatter  :      0.19s CPU      0.19s WALL (    4183 calls)

     PAW routines
     PAW_pot      :      0.95s CPU      0.97s WALL (       6 calls)
     PAW_symme    :      0.00s CPU      0.00s WALL (      12 calls)
 
     PWSCF        :     6.89s CPU         7.03s WALL

 
   This run was terminated on:   0: 2:49  28Apr2015            

=------------------------------------------------------------------------------=
   JOB DONE.
=------------------------------------------------------------------------------=
