
     Program PWSCF v.5.1 starts on 28Apr2015 at  0: 3: 0 

     This program is part of the open-source Quantum ESPRESSO suite
     for quantum simulation of materials; please cite
         "P. Giannozzi et al., J. Phys.:Condens. Matter 21 395502 (2009);
          URL http://www.quantum-espresso.org", 
     in publications or presentations arising from this work. More details at
     http://www.quantum-espresso.org/quote

     Parallel version (MPI), running on     1 processors
     Waiting for input...
     Reading input from standard input
Warning: card &IONS ignored
Warning: card / ignored
Warning: card &CELL ignored
Warning: card / ignored

     Current dimensions of program PWSCF are:
     Max number of different atomic species (ntypx) = 10
     Max number of k-points (npk) =  40000
     Max angular momentum in pseudopotentials (lmaxx) =  3
               file Si.pbe-n-kjpaw_psl.0.1.UPF: wavefunction(s)  3S renormalized

     Subspace diagonalization in iterative solution of the eigenvalue problem:
     a serial algorithm will be used

 
     G-vector sticks info
     --------------------
     sticks:   dense  smooth     PW     G-vecs:    dense   smooth      PW
     Sum         859     859    253                16865    16865    2733
 


     bravais-lattice index     =            2
     lattice parameter (alat)  =      10.2600  a.u.
     unit-cell volume          =     270.0114 (a.u.)^3
     number of atoms/cell      =            2
     number of atomic types    =            1
     number of electrons       =         8.00
     number of Kohn-Sham states=            4
     kinetic-energy cutoff     =      60.0000  Ry
     charge density cutoff     =     240.0000  Ry
     convergence threshold     =      1.0E-06
     mixing beta               =       0.7000
     number of iterations used =            8  plain     mixing
     Exchange-correlation      =  SLA  PW   PBX  PBC ( 1  4  3  4 0)

     celldm(1)=  10.260000  celldm(2)=   0.000000  celldm(3)=   0.000000
     celldm(4)=   0.000000  celldm(5)=   0.000000  celldm(6)=   0.000000

     crystal axes: (cart. coord. in units of alat)
               a(1) = (  -0.500000   0.000000   0.500000 )  
               a(2) = (   0.000000   0.500000   0.500000 )  
               a(3) = (  -0.500000   0.500000   0.000000 )  

     reciprocal axes: (cart. coord. in units 2 pi/alat)
               b(1) = ( -1.000000 -1.000000  1.000000 )  
               b(2) = (  1.000000  1.000000  1.000000 )  
               b(3) = ( -1.000000  1.000000 -1.000000 )  


     PseudoPot. # 1 for Si read from file:
     ./Si.pbe-n-kjpaw_psl.0.1.UPF
     MD5 check sum: b9d333a40e496bef61db012f150758bf
     Pseudo is Projector augmented-wave + core cor, Zval =  4.0
     Generated using "atomic" code by A. Dal Corso  v.5.0.2 svn rev. 9415
     Shape of augmentation charge: PSQ
     Using radial grid of 1141 points,  4 beta functions with: 
                l(1) =   0
                l(2) =   0
                l(3) =   1
                l(4) =   1
     Q(r) pseudized with 0 coefficients 


     atomic species   valence    mass     pseudopotential
        Si             4.00    28.05500     Si( 1.00)

      2 Sym. Ops. (no inversion) found
          (note:  2 additional sym.ops. were found but ignored
           their fractional translations are incommensurate with FFT grid)


   Cartesian axes

     site n.     atom                  positions (alat units)
         1           Si  tau(   1) = (  -0.0250000   0.0250000   0.0000000  )
         2           Si  tau(   2) = (  -0.2500000   0.2500000   0.2500000  )

     number of k points=    24
                       cart. coord. in units 2pi/alat
        k(    1) = (   0.0000000   0.0000000   0.0000000), wk =   0.0312500
        k(    2) = (  -0.2500000   0.2500000  -0.2500000), wk =   0.0625000
        k(    3) = (   0.5000000  -0.5000000   0.5000000), wk =   0.0312500
        k(    4) = (   0.0000000   0.5000000   0.0000000), wk =   0.1250000
        k(    5) = (   0.7500000  -0.2500000   0.7500000), wk =   0.1250000
        k(    6) = (   0.5000000   0.0000000   0.5000000), wk =   0.1250000
        k(    7) = (   0.0000000  -1.0000000   0.0000000), wk =   0.0625000
        k(    8) = (  -0.5000000  -1.0000000   0.0000000), wk =   0.1250000
        k(    9) = (   0.2500000   0.2500000   0.2500000), wk =   0.1250000
        k(   10) = (  -0.2500000   0.2500000   0.2500000), wk =   0.0625000
        k(   11) = (  -0.5000000  -0.5000000  -0.5000000), wk =   0.0625000
        k(   12) = (   0.5000000  -0.5000000  -0.5000000), wk =   0.0312500
        k(   13) = (   0.0000000   0.0000000   0.5000000), wk =   0.0625000
        k(   14) = (  -0.7500000  -0.2500000  -0.7500000), wk =   0.1250000
        k(   15) = (   0.7500000   0.2500000  -0.7500000), wk =   0.1250000
        k(   16) = (   0.2500000  -0.7500000  -0.7500000), wk =   0.1250000
        k(   17) = (  -0.7500000   0.7500000  -0.2500000), wk =   0.0625000
        k(   18) = (  -0.7500000  -0.7500000   0.2500000), wk =   0.1250000
        k(   19) = (   0.7500000  -0.7500000  -0.2500000), wk =   0.0625000
        k(   20) = (   0.5000000   0.0000000  -0.5000000), wk =   0.1250000
        k(   21) = (  -0.5000000   0.5000000   0.0000000), wk =   0.0625000
        k(   22) = (  -0.5000000  -0.5000000   0.0000000), wk =   0.0625000
        k(   23) = (   0.0000000   0.0000000  -1.0000000), wk =   0.0312500
        k(   24) = (   0.0000000   1.0000000  -0.5000000), wk =   0.0625000

     Dense  grid:    16865 G-vectors     FFT dimensions: (  36,  36,  36)

     Largest allocated arrays     est. size (Mb)     dimensions
        Kohn-Sham Wavefunctions         0.13 Mb     (    2148,    4)
        NL pseudopotentials             0.52 Mb     (    2148,   16)
        Each V/rho on FFT grid          0.71 Mb     (   46656)
        Each G-vector array             0.13 Mb     (   16865)
        G-vector shells                 0.00 Mb     (     214)
     Largest temporary arrays     est. size (Mb)     dimensions
        Auxiliary wavefunctions         0.52 Mb     (    2148,   16)
        Each subspace H/S matrix        0.00 Mb     (      16,   16)
        Each <psi_i|beta_j> matrix      0.00 Mb     (      16,    4)
        Arrays for rho mixing           5.70 Mb     (   46656,    8)

     Initial potential from superposition of free atoms

     starting charge    7.99888, renormalised to    8.00000
     Starting wfc are    8 randomized atomic wfcs
     Checking if some PAW data can be deallocated... 

     total cpu time spent up to now is        1.8 secs

     per-process dynamical memory:    15.7 Mb

     Self-consistent Calculation

     iteration #  1     ecut=    60.00 Ry     beta=0.70
     Davidson diagonalization with overlap
     ethr =  1.00E-02,  avg # of iterations =  2.0

     Threshold (ethr) on eigenvalues was too large:
     Diagonalizing with lowered threshold

     Davidson diagonalization with overlap
     ethr =  8.06E-04,  avg # of iterations =  1.0

     total cpu time spent up to now is        4.1 secs

     total energy              =     -93.41819268 Ry
     Harris-Foulkes estimate   =     -93.43455503 Ry
     estimated scf accuracy    <       0.06404359 Ry

     iteration #  2     ecut=    60.00 Ry     beta=0.70
     Davidson diagonalization with overlap
     ethr =  8.01E-04,  avg # of iterations =  1.0

     total cpu time spent up to now is        5.3 secs

     total energy              =     -93.42072247 Ry
     Harris-Foulkes estimate   =     -93.42085623 Ry
     estimated scf accuracy    <       0.00266724 Ry

     iteration #  3     ecut=    60.00 Ry     beta=0.70
     Davidson diagonalization with overlap
     ethr =  3.33E-05,  avg # of iterations =  1.9

     total cpu time spent up to now is        6.6 secs

     total energy              =     -93.42101318 Ry
     Harris-Foulkes estimate   =     -93.42102614 Ry
     estimated scf accuracy    <       0.00006210 Ry

     iteration #  4     ecut=    60.00 Ry     beta=0.70
     Davidson diagonalization with overlap
     ethr =  7.76E-07,  avg # of iterations =  3.0

     total cpu time spent up to now is        8.2 secs

     total energy              =     -93.42104804 Ry
     Harris-Foulkes estimate   =     -93.42104863 Ry
     estimated scf accuracy    <       0.00000176 Ry

     iteration #  5     ecut=    60.00 Ry     beta=0.70
     Davidson diagonalization with overlap
     ethr =  2.20E-08,  avg # of iterations =  3.4

     total cpu time spent up to now is        9.9 secs

     End of self-consistent calculation

          k = 0.0000 0.0000 0.0000 (  2085 PWs)   bands (ev):

    -5.7602   5.3748   6.3016   7.2091

          k =-0.2500 0.2500-0.2500 (  2106 PWs)   bands (ev):

    -5.0061   2.7226   4.9118   5.6494

          k = 0.5000-0.5000 0.5000 (  2120 PWs)   bands (ev):

    -3.7038  -0.1314   4.5343   5.2692

          k = 0.0000 0.5000 0.0000 (  2085 PWs)   bands (ev):

    -4.6862   2.6331   4.1289   4.6643

          k = 0.7500-0.2500 0.7500 (  2123 PWs)   bands (ev):

    -3.2409   0.3378   2.6330   3.8204

          k = 0.5000 0.0000 0.5000 (  2119 PWs)   bands (ev):

    -3.8265   1.1695   2.4470   4.5787

          k = 0.0000-1.0000 0.0000 (  2100 PWs)   bands (ev):

    -2.0345  -1.1759   3.1795   3.6180

          k =-0.5000-1.0000 0.0000 (  2148 PWs)   bands (ev):

    -1.7950  -1.1260   2.2216   2.6047

          k = 0.2500 0.2500 0.2500 (  2106 PWs)   bands (ev):

    -4.9652   2.2715   4.9432   6.1296

          k =-0.2500 0.2500 0.2500 (  2106 PWs)   bands (ev):

    -4.9217   1.8532   5.3790   6.0055

          k =-0.5000-0.5000-0.5000 (  2120 PWs)   bands (ev):

    -3.4601  -0.7204   4.5086   5.6907

          k = 0.5000-0.5000-0.5000 (  2120 PWs)   bands (ev):

    -3.0817  -1.4247   4.8802   5.5010

          k = 0.0000 0.0000 0.5000 (  2085 PWs)   bands (ev):

    -4.6817   2.5013   4.3549   4.6169

          k =-0.7500-0.2500-0.7500 (  2123 PWs)   bands (ev):

    -3.0738  -0.2173   3.0847   3.7923

          k = 0.7500 0.2500-0.7500 (  2123 PWs)   bands (ev):

    -3.0970  -0.0027   2.2832   4.3483

          k = 0.2500-0.7500-0.7500 (  2123 PWs)   bands (ev):

    -2.8793  -0.6145   2.7385   4.2986

          k =-0.7500 0.7500-0.2500 (  2123 PWs)   bands (ev):

    -3.2362   0.4226   2.2558   4.0839

          k =-0.7500-0.7500 0.2500 (  2123 PWs)   bands (ev):

    -3.0692  -0.1699   2.6219   4.2272

          k = 0.7500-0.7500-0.2500 (  2123 PWs)   bands (ev):

    -2.8392  -0.7491   3.1692   3.9922

          k = 0.5000 0.0000-0.5000 (  2119 PWs)   bands (ev):

    -3.6333   0.3291   2.5116   5.3125

          k =-0.5000 0.5000 0.0000 (  2119 PWs)   bands (ev):

    -3.7330   0.6828   2.5492   4.9245

          k =-0.5000-0.5000 0.0000 (  2119 PWs)   bands (ev):

    -3.7378   0.7914   2.3416   5.1069

          k = 0.0000 0.0000-1.0000 (  2100 PWs)   bands (ev):

    -1.7352  -1.5476   3.3855   3.5300

          k = 0.0000 1.0000-0.5000 (  2148 PWs)   bands (ev):

    -1.9017  -0.9690   2.1144   2.6511

     highest occupied level (ev):     7.2091

!    total energy              =     -93.42104903 Ry
     Harris-Foulkes estimate   =     -93.42104912 Ry
     estimated scf accuracy    <       0.00000012 Ry

     total all-electron energy =     -1160.112785 Ry

     The total energy is the sum of the following terms:

     one-electron contribution =       5.73036778 Ry
     hartree contribution      =       1.12445901 Ry
     xc contribution           =     -12.27001879 Ry
     ewald contribution        =     -16.76815038 Ry
     one-center paw contrib.   =     -71.23770664 Ry

     convergence has been achieved in   5 iterations

     Forces acting on atoms (Ry/au):

     atom    1 type  1   force =     0.07467163   -0.07467163   -0.02629855
     atom    2 type  1   force =    -0.07467163    0.07467163    0.02629855

     Total force =     0.153905     Total SCF correction =     0.000096


     entering subroutine stress ...

          total   stress  (Ry/bohr**3)                   (kbar)     P=   38.51
   0.00023367  -0.00011309  -0.00036405         34.37    -16.64    -53.55
  -0.00011309   0.00023367   0.00036405        -16.64     34.37     53.55
  -0.00036405   0.00036405   0.00031797        -53.55     53.55     46.78


     Writing output data file pwscf.save
 
     init_run     :      1.45s CPU      1.46s WALL (       1 calls)
     electrons    :      8.03s CPU      8.12s WALL (       1 calls)
     forces       :      0.17s CPU      0.18s WALL (       1 calls)
     stress       :      0.58s CPU      0.58s WALL (       1 calls)

     Called by init_run:
     wfcinit      :      0.65s CPU      0.65s WALL (       1 calls)
     potinit      :      0.22s CPU      0.22s WALL (       1 calls)

     Called by electrons:
     c_bands      :      5.57s CPU      5.64s WALL (       6 calls)
     sum_band     :      1.23s CPU      1.24s WALL (       6 calls)
     v_of_rho     :      0.31s CPU      0.31s WALL (       6 calls)
     newd         :      0.16s CPU      0.16s WALL (       6 calls)
     mix_rho      :      0.03s CPU      0.03s WALL (       6 calls)

     Called by c_bands:
     init_us_2    :      0.27s CPU      0.27s WALL (     360 calls)
     cegterg      :      5.13s CPU      5.18s WALL (     144 calls)

     Called by *egterg:
     h_psi        :      5.19s CPU      5.26s WALL (     465 calls)
     s_psi        :      0.12s CPU      0.12s WALL (     465 calls)
     g_psi        :      0.05s CPU      0.05s WALL (     297 calls)
     cdiaghg      :      0.05s CPU      0.04s WALL (     417 calls)

     Called by h_psi:
     add_vuspsi   :      0.10s CPU      0.12s WALL (     465 calls)

     General routines
     calbec       :      0.18s CPU      0.17s WALL (     657 calls)
     fft          :      0.22s CPU      0.22s WALL (     105 calls)
     fftw         :      5.24s CPU      5.28s WALL (    4088 calls)
     davcio       :      0.00s CPU      0.00s WALL (      24 calls)
 
     Parallel routines
     fft_scatter  :      0.39s CPU      0.39s WALL (    4193 calls)

     PAW routines
     PAW_pot      :      0.95s CPU      0.95s WALL (       6 calls)
     PAW_symme    :      0.00s CPU      0.00s WALL (      12 calls)
 
     PWSCF        :    10.64s CPU        10.81s WALL

 
   This run was terminated on:   0: 3:11  28Apr2015            

=------------------------------------------------------------------------------=
   JOB DONE.
=------------------------------------------------------------------------------=
