
     Program PWSCF v.5.1 starts on 28Apr2015 at  0: 3:25 

     This program is part of the open-source Quantum ESPRESSO suite
     for quantum simulation of materials; please cite
         "P. Giannozzi et al., J. Phys.:Condens. Matter 21 395502 (2009);
          URL http://www.quantum-espresso.org", 
     in publications or presentations arising from this work. More details at
     http://www.quantum-espresso.org/quote

     Parallel version (MPI), running on     1 processors
     Waiting for input...
     Reading input from standard input
Warning: card &IONS ignored
Warning: card / ignored
Warning: card &CELL ignored
Warning: card / ignored

     Current dimensions of program PWSCF are:
     Max number of different atomic species (ntypx) = 10
     Max number of k-points (npk) =  40000
     Max angular momentum in pseudopotentials (lmaxx) =  3
               file Si.pbe-n-kjpaw_psl.0.1.UPF: wavefunction(s)  3S renormalized

     Subspace diagonalization in iterative solution of the eigenvalue problem:
     a serial algorithm will be used

 
     G-vector sticks info
     --------------------
     sticks:   dense  smooth     PW     G-vecs:    dense   smooth      PW
     Sum        1159    1159    337                26229    26229    4015
 


     bravais-lattice index     =            2
     lattice parameter (alat)  =      10.2600  a.u.
     unit-cell volume          =     270.0114 (a.u.)^3
     number of atoms/cell      =            2
     number of atomic types    =            1
     number of electrons       =         8.00
     number of Kohn-Sham states=            4
     kinetic-energy cutoff     =      80.0000  Ry
     charge density cutoff     =     320.0000  Ry
     convergence threshold     =      1.0E-06
     mixing beta               =       0.7000
     number of iterations used =            8  plain     mixing
     Exchange-correlation      =  SLA  PW   PBX  PBC ( 1  4  3  4 0)

     celldm(1)=  10.260000  celldm(2)=   0.000000  celldm(3)=   0.000000
     celldm(4)=   0.000000  celldm(5)=   0.000000  celldm(6)=   0.000000

     crystal axes: (cart. coord. in units of alat)
               a(1) = (  -0.500000   0.000000   0.500000 )  
               a(2) = (   0.000000   0.500000   0.500000 )  
               a(3) = (  -0.500000   0.500000   0.000000 )  

     reciprocal axes: (cart. coord. in units 2 pi/alat)
               b(1) = ( -1.000000 -1.000000  1.000000 )  
               b(2) = (  1.000000  1.000000  1.000000 )  
               b(3) = ( -1.000000  1.000000 -1.000000 )  


     PseudoPot. # 1 for Si read from file:
     ./Si.pbe-n-kjpaw_psl.0.1.UPF
     MD5 check sum: b9d333a40e496bef61db012f150758bf
     Pseudo is Projector augmented-wave + core cor, Zval =  4.0
     Generated using "atomic" code by A. Dal Corso  v.5.0.2 svn rev. 9415
     Shape of augmentation charge: PSQ
     Using radial grid of 1141 points,  4 beta functions with: 
                l(1) =   0
                l(2) =   0
                l(3) =   1
                l(4) =   1
     Q(r) pseudized with 0 coefficients 


     atomic species   valence    mass     pseudopotential
        Si             4.00    28.05500     Si( 1.00)

      2 Sym. Ops. (no inversion) found
          (note:  2 additional sym.ops. were found but ignored
           their fractional translations are incommensurate with FFT grid)


   Cartesian axes

     site n.     atom                  positions (alat units)
         1           Si  tau(   1) = (  -0.0250000   0.0250000   0.0000000  )
         2           Si  tau(   2) = (  -0.2500000   0.2500000   0.2500000  )

     number of k points=    24
                       cart. coord. in units 2pi/alat
        k(    1) = (   0.0000000   0.0000000   0.0000000), wk =   0.0312500
        k(    2) = (  -0.2500000   0.2500000  -0.2500000), wk =   0.0625000
        k(    3) = (   0.5000000  -0.5000000   0.5000000), wk =   0.0312500
        k(    4) = (   0.0000000   0.5000000   0.0000000), wk =   0.1250000
        k(    5) = (   0.7500000  -0.2500000   0.7500000), wk =   0.1250000
        k(    6) = (   0.5000000   0.0000000   0.5000000), wk =   0.1250000
        k(    7) = (   0.0000000  -1.0000000   0.0000000), wk =   0.0625000
        k(    8) = (  -0.5000000  -1.0000000   0.0000000), wk =   0.1250000
        k(    9) = (   0.2500000   0.2500000   0.2500000), wk =   0.1250000
        k(   10) = (  -0.2500000   0.2500000   0.2500000), wk =   0.0625000
        k(   11) = (  -0.5000000  -0.5000000  -0.5000000), wk =   0.0625000
        k(   12) = (   0.5000000  -0.5000000  -0.5000000), wk =   0.0312500
        k(   13) = (   0.0000000   0.0000000   0.5000000), wk =   0.0625000
        k(   14) = (  -0.7500000  -0.2500000  -0.7500000), wk =   0.1250000
        k(   15) = (   0.7500000   0.2500000  -0.7500000), wk =   0.1250000
        k(   16) = (   0.2500000  -0.7500000  -0.7500000), wk =   0.1250000
        k(   17) = (  -0.7500000   0.7500000  -0.2500000), wk =   0.0625000
        k(   18) = (  -0.7500000  -0.7500000   0.2500000), wk =   0.1250000
        k(   19) = (   0.7500000  -0.7500000  -0.2500000), wk =   0.0625000
        k(   20) = (   0.5000000   0.0000000  -0.5000000), wk =   0.1250000
        k(   21) = (  -0.5000000   0.5000000   0.0000000), wk =   0.0625000
        k(   22) = (  -0.5000000  -0.5000000   0.0000000), wk =   0.0625000
        k(   23) = (   0.0000000   0.0000000  -1.0000000), wk =   0.0312500
        k(   24) = (   0.0000000   1.0000000  -0.5000000), wk =   0.0625000

     Dense  grid:    26229 G-vectors     FFT dimensions: (  45,  45,  45)

     Largest allocated arrays     est. size (Mb)     dimensions
        Kohn-Sham Wavefunctions         0.20 Mb     (    3287,    4)
        NL pseudopotentials             0.80 Mb     (    3287,   16)
        Each V/rho on FFT grid          1.39 Mb     (   91125)
        Each G-vector array             0.20 Mb     (   26229)
        G-vector shells                 0.00 Mb     (     288)
     Largest temporary arrays     est. size (Mb)     dimensions
        Auxiliary wavefunctions         0.80 Mb     (    3287,   16)
        Each subspace H/S matrix        0.00 Mb     (      16,   16)
        Each <psi_i|beta_j> matrix      0.00 Mb     (      16,    4)
        Arrays for rho mixing          11.12 Mb     (   91125,    8)

     Initial potential from superposition of free atoms

     starting charge    7.99888, renormalised to    8.00000
     Starting wfc are    8 randomized atomic wfcs
     Checking if some PAW data can be deallocated... 

     total cpu time spent up to now is        2.7 secs

     per-process dynamical memory:    23.9 Mb

     Self-consistent Calculation

     iteration #  1     ecut=    80.00 Ry     beta=0.70
     Davidson diagonalization with overlap
     ethr =  1.00E-02,  avg # of iterations =  2.0

     Threshold (ethr) on eigenvalues was too large:
     Diagonalizing with lowered threshold

     Davidson diagonalization with overlap
     ethr =  8.08E-04,  avg # of iterations =  1.0

     total cpu time spent up to now is        7.6 secs

     total energy              =     -93.41820867 Ry
     Harris-Foulkes estimate   =     -93.43454823 Ry
     estimated scf accuracy    <       0.06396022 Ry

     iteration #  2     ecut=    80.00 Ry     beta=0.70
     Davidson diagonalization with overlap
     ethr =  8.00E-04,  avg # of iterations =  1.0

     total cpu time spent up to now is        9.9 secs

     total energy              =     -93.42073122 Ry
     Harris-Foulkes estimate   =     -93.42086609 Ry
     estimated scf accuracy    <       0.00267672 Ry

     iteration #  3     ecut=    80.00 Ry     beta=0.70
     Davidson diagonalization with overlap
     ethr =  3.35E-05,  avg # of iterations =  2.0

     total cpu time spent up to now is       12.4 secs

     total energy              =     -93.42102315 Ry
     Harris-Foulkes estimate   =     -93.42103667 Ry
     estimated scf accuracy    <       0.00006232 Ry

     iteration #  4     ecut=    80.00 Ry     beta=0.70
     Davidson diagonalization with overlap
     ethr =  7.79E-07,  avg # of iterations =  3.0

     total cpu time spent up to now is       15.6 secs

     total energy              =     -93.42105619 Ry
     Harris-Foulkes estimate   =     -93.42105686 Ry
     estimated scf accuracy    <       0.00000194 Ry

     iteration #  5     ecut=    80.00 Ry     beta=0.70
     Davidson diagonalization with overlap
     ethr =  2.42E-08,  avg # of iterations =  3.3

     total cpu time spent up to now is       18.9 secs

     End of self-consistent calculation

          k = 0.0000 0.0000 0.0000 (  3287 PWs)   bands (ev):

    -5.7603   5.3746   6.3015   7.2091

          k =-0.2500 0.2500-0.2500 (  3275 PWs)   bands (ev):

    -5.0062   2.7225   4.9117   5.6494

          k = 0.5000-0.5000 0.5000 (  3274 PWs)   bands (ev):

    -3.7039  -0.1314   4.5341   5.2692

          k = 0.0000 0.5000 0.0000 (  3263 PWs)   bands (ev):

    -4.6863   2.6330   4.1288   4.6643

          k = 0.7500-0.2500 0.7500 (  3259 PWs)   bands (ev):

    -3.2409   0.3377   2.6329   3.8204

          k = 0.5000 0.0000 0.5000 (  3250 PWs)   bands (ev):

    -3.8265   1.1694   2.4469   4.5786

          k = 0.0000-1.0000 0.0000 (  3282 PWs)   bands (ev):

    -2.0346  -1.1760   3.1794   3.6179

          k =-0.5000-1.0000 0.0000 (  3268 PWs)   bands (ev):

    -1.7951  -1.1260   2.2216   2.6047

          k = 0.2500 0.2500 0.2500 (  3275 PWs)   bands (ev):

    -4.9653   2.2714   4.9431   6.1296

          k =-0.2500 0.2500 0.2500 (  3275 PWs)   bands (ev):

    -4.9218   1.8530   5.3789   6.0054

          k =-0.5000-0.5000-0.5000 (  3274 PWs)   bands (ev):

    -3.4602  -0.7204   4.5085   5.6906

          k = 0.5000-0.5000-0.5000 (  3274 PWs)   bands (ev):

    -3.0817  -1.4249   4.8801   5.5010

          k = 0.0000 0.0000 0.5000 (  3263 PWs)   bands (ev):

    -4.6818   2.5012   4.3548   4.6169

          k =-0.7500-0.2500-0.7500 (  3259 PWs)   bands (ev):

    -3.0739  -0.2173   3.0846   3.7923

          k = 0.7500 0.2500-0.7500 (  3259 PWs)   bands (ev):

    -3.0971  -0.0027   2.2831   4.3483

          k = 0.2500-0.7500-0.7500 (  3259 PWs)   bands (ev):

    -2.8794  -0.6146   2.7385   4.2986

          k =-0.7500 0.7500-0.2500 (  3259 PWs)   bands (ev):

    -3.2363   0.4225   2.2557   4.0838

          k =-0.7500-0.7500 0.2500 (  3259 PWs)   bands (ev):

    -3.0693  -0.1700   2.6219   4.2272

          k = 0.7500-0.7500-0.2500 (  3259 PWs)   bands (ev):

    -2.8393  -0.7492   3.1692   3.9921

          k = 0.5000 0.0000-0.5000 (  3250 PWs)   bands (ev):

    -3.6334   0.3290   2.5116   5.3125

          k =-0.5000 0.5000 0.0000 (  3250 PWs)   bands (ev):

    -3.7331   0.6827   2.5491   4.9244

          k =-0.5000-0.5000 0.0000 (  3250 PWs)   bands (ev):

    -3.7379   0.7913   2.3415   5.1068

          k = 0.0000 0.0000-1.0000 (  3282 PWs)   bands (ev):

    -1.7354  -1.5477   3.3855   3.5299

          k = 0.0000 1.0000-0.5000 (  3268 PWs)   bands (ev):

    -1.9018  -0.9691   2.1144   2.6510

     highest occupied level (ev):     7.2091

!    total energy              =     -93.42105720 Ry
     Harris-Foulkes estimate   =     -93.42105730 Ry
     estimated scf accuracy    <       0.00000013 Ry

     total all-electron energy =     -1160.112793 Ry

     The total energy is the sum of the following terms:

     one-electron contribution =       5.73033614 Ry
     hartree contribution      =       1.12447628 Ry
     xc contribution           =     -12.27000056 Ry
     ewald contribution        =     -16.76815038 Ry
     one-center paw contrib.   =     -71.23771867 Ry

     convergence has been achieved in   5 iterations

     Forces acting on atoms (Ry/au):

     atom    1 type  1   force =     0.07467016   -0.07467016   -0.02627898
     atom    2 type  1   force =    -0.07467016    0.07467016    0.02627898

     Total force =     0.153895     Total SCF correction =     0.000080


     entering subroutine stress ...

          total   stress  (Ry/bohr**3)                   (kbar)     P=   38.45
   0.00023330  -0.00011296  -0.00036395         34.32    -16.62    -53.54
  -0.00011296   0.00023330   0.00036395        -16.62     34.32     53.54
  -0.00036395   0.00036395   0.00031755        -53.54     53.54     46.71


     Writing output data file pwscf.save
 
     init_run     :      2.39s CPU      2.43s WALL (       1 calls)
     electrons    :     16.11s CPU     16.22s WALL (       1 calls)
     forces       :      0.30s CPU      0.30s WALL (       1 calls)
     stress       :      0.94s CPU      0.95s WALL (       1 calls)

     Called by init_run:
     wfcinit      :      1.41s CPU      1.43s WALL (       1 calls)
     potinit      :      0.28s CPU      0.29s WALL (       1 calls)

     Called by electrons:
     c_bands      :     11.80s CPU     11.87s WALL (       6 calls)
     sum_band     :      2.69s CPU      2.70s WALL (       6 calls)
     v_of_rho     :      0.63s CPU      0.63s WALL (       6 calls)
     newd         :      0.27s CPU      0.28s WALL (       6 calls)
     mix_rho      :      0.05s CPU      0.05s WALL (       6 calls)

     Called by c_bands:
     init_us_2    :      0.43s CPU      0.44s WALL (     360 calls)
     cegterg      :     11.10s CPU     11.15s WALL (     144 calls)

     Called by *egterg:
     h_psi        :     11.63s CPU     11.68s WALL (     464 calls)
     s_psi        :      0.15s CPU      0.18s WALL (     464 calls)
     g_psi        :      0.08s CPU      0.08s WALL (     296 calls)
     cdiaghg      :      0.05s CPU      0.06s WALL (     416 calls)

     Called by h_psi:
     add_vuspsi   :      0.18s CPU      0.18s WALL (     464 calls)

     General routines
     calbec       :      0.27s CPU      0.29s WALL (     656 calls)
     fft          :      0.49s CPU      0.49s WALL (     105 calls)
     fftw         :     12.01s CPU     12.06s WALL (    4072 calls)
     davcio       :      0.00s CPU      0.00s WALL (      24 calls)
 
     Parallel routines
     fft_scatter  :      0.90s CPU      0.90s WALL (    4177 calls)

     PAW routines
     PAW_pot      :      0.95s CPU      0.97s WALL (       6 calls)
     PAW_symme    :      0.00s CPU      0.00s WALL (      12 calls)
 
     PWSCF        :    20.16s CPU        20.40s WALL

 
   This run was terminated on:   0: 3:46  28Apr2015            

=------------------------------------------------------------------------------=
   JOB DONE.
=------------------------------------------------------------------------------=
