 argument  1 = N2.nw
                                         
                                         


              Northwest Computational Chemistry Package (NWChem) 6.3
              ------------------------------------------------------


                    Environmental Molecular Sciences Laboratory
                       Pacific Northwest National Laboratory
                                Richland, WA 99352

                              Copyright (c) 1994-2012
                       Pacific Northwest National Laboratory
                            Battelle Memorial Institute

             NWChem is an open-source computational chemistry package
                        distributed under the terms of the
                      Educational Community License (ECL) 2.0
             A copy of the license is included with this distribution
                              in the LICENSE.TXT file

                                  ACKNOWLEDGMENT
                                  --------------

            This software and its documentation were developed at the
            EMSL at Pacific Northwest National Laboratory, a multiprogram
            national laboratory, operated for the U.S. Department of Energy
            by Battelle under Contract Number DE-AC05-76RL01830. Support
            for this work was provided by the Department of Energy Office
            of Biological and Environmental Research, Office of Basic
            Energy Sciences, and the Office of Advanced Scientific Computing.


           Job information
           ---------------

    hostname        = ChensPro.local
    program         = nwchem
    date            = Mon Apr 20 16:14:05 2015

    compiled        = Sat_Jul_20_13:52:43_2013
    source          = /Users/shyuepingong/Software/nwchem-6.3
    nwchem branch   = 6.3
    nwchem revision = 24277
    ga revision     = 10379
    input           = N2.nw
    prefix          = N2.
    data base       = ./N2.db
    status          = restart
    nproc           =        1
    time left       =     -1s



           Memory information
           ------------------

    heap     =   32768001 doubles =    250.0 Mbytes
    stack    =   32768001 doubles =    250.0 Mbytes
    global   =   65536000 doubles =    500.0 Mbytes (distinct from heap & stack)
    total    =  131072002 doubles =   1000.0 Mbytes
    verify   = yes
    hardfail = no 


           Directory information
           ---------------------

  0 permanent = .
  0 scratch   = .


           Previous task information
           -------------------------

    Theory    = dft                             
    Operation = energy                        
    Status    = fail                          
    Qmmm      = F
    Ignore    = F


           Geometries in the database
           --------------------------

       Name                              Natoms  Last Modified
       --------------------------------  ------  ------------------------
    1  geometry                               1  Mon Apr 20 16:13:49 2015  

  The geometry named "geometry" is the default for restart



           Basis sets in the database
           --------------------------

       Name                              Natoms  Last Modified
        --------------------------------  ------  ------------------------
    1  ao basis                               1  Mon Apr 20 16:13:49 2015  

  The basis set named "ao basis" is the default AO basis for restart




                                NWChem Input Module
                                -------------------



 Scaling coordinates for geometry "geometry" by  1.889725989
 (inverse scale =  0.529177249)



                             Geometry "geometry" -> ""
                             -------------------------

 Output coordinates in angstroms (scale by  1.889725989 to convert to a.u.)

  No.       Tag          Charge          X              Y              Z
 ---- ---------------- ---------- -------------- -------------- --------------
    1 N                    7.0000     0.00000000     0.00000000     0.00000000

      Atomic Mass 
      ----------- 

      N                 14.003070


 Effective nuclear repulsion energy (a.u.)       0.0000000000

            Nuclear Dipole moment (a.u.) 
            ----------------------------
        X                 Y               Z
 ---------------- ---------------- ----------------
     0.0000000000     0.0000000000     0.0000000000


            XYZ format geometry
            -------------------
     1
 geometry
 N                     0.00000000     0.00000000     0.00000000

                                   N2 dft energy
                                   -------------
  library name resolved from: environment
  library file name is: </Users/chenzheng/Google Drive/nano266/resources/nwchem_basis/>
  
                      Basis "ao basis" -> "" (cartesian)
                      -----
  N (Nitrogen)
  ------------
            Exponent  Coefficients 
       -------------- ---------------------------------------------------------
  1 S  6.29348000E+03  0.001970
  1 S  9.49044000E+02  0.014961
  1 S  2.18776000E+02  0.073501
  1 S  6.36916000E+01  0.248937
  1 S  1.88282000E+01  0.602460
  1 S  2.72023000E+00  0.256202

  2 S  3.06331000E+01  0.111906
  2 S  7.02614000E+00  0.921666
  2 S  2.11205000E+00 -0.002569

  3 P  3.06331000E+01  0.038312
  3 P  7.02614000E+00  0.237403
  3 P  2.11205000E+00  0.817592

  4 S  6.84009000E-01  1.000000

  5 P  6.84009000E-01  1.000000

  6 S  2.00878000E-01  1.000000

  7 P  2.00878000E-01  1.000000



 Summary of "ao basis" -> "" (cartesian)
 ------------------------------------------------------------------------------
       Tag                 Description            Shells   Functions and Types
 ---------------- ------------------------------  ------  ---------------------
 N                           6-311G                  7       13   4s3p



                                 NWChem DFT Module
                                 -----------------


                                   N2 dft energy


  Caching 1-el integrals 

            General Information
            -------------------
          SCF calculation type: DFT
          Wavefunction type:  spin polarized.
          No. of atoms     :     1
          No. of electrons :     7
           Alpha electrons :     5
            Beta electrons :     2
          Charge           :     0
          Spin multiplicity:     4
          Use of symmetry is: off; symmetry adaption is: off
          Maximum number of iterations:  30
          AO basis - number of functions:    13
                     number of shells:     7
          Convergence on energy requested: 1.00D-06
          Convergence on density requested: 1.00D-05
          Convergence on gradient requested: 5.00D-04

              XC Information
              --------------
                         B3LYP Method XC Potential
                     Hartree-Fock (Exact) Exchange  0.200          
                        Slater Exchange Functional  0.800 local    
                    Becke 1988 Exchange Functional  0.720 non-local
              Lee-Yang-Parr Correlation Functional  0.810          
                  VWN I RPA Correlation Functional  0.190 local    

             Grid Information
             ----------------
          Grid used for XC integration:  medium    
          Radial quadrature: Mura-Knowles        
          Angular quadrature: Lebedev. 
          Tag              B.-S. Rad. Rad. Pts. Rad. Cut. Ang. Pts.
          ---              ---------- --------- --------- ---------
          N                   0.65       49           4.0       434
          Grid pruning is: on 
          Number of quadrature shells:    49
          Spatial weights used:  Erf1

          Convergence Information
          -----------------------
          Convergence aids based upon iterative change in 
          total energy or number of iterations. 
          Levelshifting, if invoked, occurs when the 
          HOMO/LUMO gap drops below (HL_TOL): 1.00D-02
          DIIS, if invoked, will attempt to extrapolate 
          using up to (NFOCK): 10 stored Fock matrices.

                    Damping( 0%)  Levelshifting(0.5)       DIIS
                  --------------- ------------------- ---------------
          dE  on:    start            ASAP                start   
          dE off:    2 iters         30 iters            30 iters 


      Screening Tolerance Information
      -------------------------------
          Density screening/tol_rho: 1.00D-10
          AO Gaussian exp screening on grid/accAOfunc:  14
          CD Gaussian exp screening on grid/accCDfunc:  20
          XC Gaussian exp screening on grid/accXCfunc:  20
          Schwarz screening/accCoul: 1.00D-08


 Loading old vectors from job with title :

N2 dft energy

   Time after variat. SCF:      0.0
   Time prior to 1st pass:      0.0

 #quartets = 4.060D+02 #integrals = 9.100D+02 #direct =  0.0% #cached =100.0%


 Integral file          = ./N2.aoints.0
 Record size in doubles =  65536        No. of integs per rec  =  43688
 Max. records in memory =      2        Max. records in file   = 183731
 No. of bits per label  =      8        No. of bits per value  =     64


 Grid_pts file          = ./N2.gridpts.0
 Record size in doubles =  12289        No. of grid_pts per rec  =   3070
 Max. records in memory =      9        Max. recs in file   =    979824


           Memory utilization after 1st SCF pass: 
           Heap Space remaining (MW):       32.53            32525187
          Stack Space remaining (MW):       32.77            32767789

   convergence    iter        energy       DeltaE   RMS-Dens  Diis-err    time
 ---------------- ----- ----------------- --------- --------- ---------  ------
 d= 0,ls=0.0,diis     1    -54.3441147461 -5.43D+01  6.89D-02  7.83D-01     0.1
                                                     5.18D-02  2.02D-01
 d= 0,ls=0.0,diis     2    -54.4932593379 -1.49D-01  2.63D-02  3.51D-01     0.2
                                                     1.96D-02  1.06D-01
 d= 0,ls=0.0,diis     3    -54.5985354415 -1.05D-01  2.97D-04  2.72D-05     0.2
                                                     1.19D-04  3.69D-06
 d= 0,ls=0.0,diis     4    -54.5985433945 -7.95D-06  5.28D-05  1.20D-06     0.2
                                                     2.67D-05  1.65D-07
 d= 0,ls=0.0,diis     5    -54.5985437691 -3.75D-07  5.04D-06  6.45D-09     0.2
                                                     2.28D-06  1.18D-09


         Total DFT energy =      -54.598543769141
      One electron energy =      -73.995998036544
           Coulomb energy =       26.203184723545
    Exchange-Corr. energy =       -6.805730456143
 Nuclear repulsion energy =        0.000000000000

 Numeric. integr. density =        6.999998862923

     Total iterative time =      0.2s



                    DFT Final Alpha Molecular Orbital Analysis
                    ------------------------------------------

 Vector    1  Occ=1.000000D+00  E=-1.442213D+01
              MO Center= -2.3D-18, -6.6D-18,  9.3D-19, r^2= 2.0D-02
   Bfn.  Coefficient  Atom+Function         Bfn.  Coefficient  Atom+Function  
  ----- ------------  ---------------      ----- ------------  ---------------
     1      0.556222  1 N  s                  2      0.466961  1 N  s          

 Vector    2  Occ=1.000000D+00  E=-8.057525D-01
              MO Center=  7.9D-17, -8.3D-17, -3.5D-18, r^2= 5.8D-01
   Bfn.  Coefficient  Atom+Function         Bfn.  Coefficient  Atom+Function  
  ----- ------------  ---------------      ----- ------------  ---------------
     6      0.640774  1 N  s                 10      0.480839  1 N  s          
     2     -0.214301  1 N  s          

 Vector    3  Occ=1.000000D+00  E=-3.514897D-01
              MO Center= -4.8D-19,  4.2D-18,  6.2D-18, r^2= 7.1D-01
   Bfn.  Coefficient  Atom+Function         Bfn.  Coefficient  Atom+Function  
  ----- ------------  ---------------      ----- ------------  ---------------
     9      0.386329  1 N  pz                13      0.353852  1 N  pz         
     5      0.264222  1 N  pz                 8      0.259795  1 N  py         
    12      0.237955  1 N  py                 4      0.177681  1 N  py         

 Vector    4  Occ=1.000000D+00  E=-3.514883D-01
              MO Center=  5.3D-18, -8.3D-19,  9.7D-19, r^2= 7.1D-01
   Bfn.  Coefficient  Atom+Function         Bfn.  Coefficient  Atom+Function  
  ----- ------------  ---------------      ----- ------------  ---------------
     7      0.453599  1 N  px                11      0.415471  1 N  px         
     3      0.310230  1 N  px         

 Vector    5  Occ=1.000000D+00  E=-3.514883D-01
              MO Center=  4.9D-18,  1.8D-17, -1.1D-17, r^2= 7.1D-01
   Bfn.  Coefficient  Atom+Function         Bfn.  Coefficient  Atom+Function  
  ----- ------------  ---------------      ----- ------------  ---------------
     8      0.380982  1 N  py                12      0.348958  1 N  py         
     4      0.260565  1 N  py                 9     -0.248019  1 N  pz         
    13     -0.227171  1 N  pz                 5     -0.169628  1 N  pz         

 Vector    6  Occ=0.000000D+00  E= 5.382933D-01
              MO Center= -1.6D-16,  1.4D-15,  2.1D-15, r^2= 1.8D+00
   Bfn.  Coefficient  Atom+Function         Bfn.  Coefficient  Atom+Function  
  ----- ------------  ---------------      ----- ------------  ---------------
    13      0.969111  1 N  pz                 9     -0.662175  1 N  pz         
    12      0.651822  1 N  py                 8     -0.445377  1 N  py         
     5     -0.211667  1 N  pz         

 Vector    7  Occ=0.000000D+00  E= 5.382934D-01
              MO Center=  6.6D-16,  2.6D-15, -1.7D-15, r^2= 1.8D+00
   Bfn.  Coefficient  Atom+Function         Bfn.  Coefficient  Atom+Function  
  ----- ------------  ---------------      ----- ------------  ---------------
    12      0.958392  1 N  py                 8     -0.654852  1 N  py         
    13     -0.625445  1 N  pz                 9      0.427356  1 N  pz         
    11      0.245136  1 N  px                 4     -0.209326  1 N  py         
     7     -0.167497  1 N  px         

 Vector    8  Occ=0.000000D+00  E= 5.382934D-01
              MO Center=  2.5D-15, -3.6D-16,  4.4D-16, r^2= 1.8D+00
   Bfn.  Coefficient  Atom+Function         Bfn.  Coefficient  Atom+Function  
  ----- ------------  ---------------      ----- ------------  ---------------
    11      1.141908  1 N  px                 7     -0.780246  1 N  px         
     3     -0.249409  1 N  px                13      0.198573  1 N  pz         
    12     -0.162487  1 N  py         

 Vector    9  Occ=0.000000D+00  E= 5.948631D-01
              MO Center= -3.1D-15, -3.5D-15, -9.9D-16, r^2= 1.4D+00
   Bfn.  Coefficient  Atom+Function         Bfn.  Coefficient  Atom+Function  
  ----- ------------  ---------------      ----- ------------  ---------------
     6      1.587510  1 N  s                 10     -1.522576  1 N  s          
     2     -0.240609  1 N  s          

 Vector   10  Occ=0.000000D+00  E= 3.521963D+00
              MO Center=  3.5D-18, -3.0D-17, -4.5D-17, r^2= 5.7D-01
   Bfn.  Coefficient  Atom+Function         Bfn.  Coefficient  Atom+Function  
  ----- ------------  ---------------      ----- ------------  ---------------
     9      1.193053  1 N  pz                 5     -1.058656  1 N  pz         
     8      0.802373  1 N  py                 4     -0.711986  1 N  py         
    13     -0.480179  1 N  pz                12     -0.322938  1 N  py         

 Vector   11  Occ=0.000000D+00  E= 3.521964D+00
              MO Center= -1.6D-17,  3.0D-18, -3.3D-18, r^2= 5.7D-01
   Bfn.  Coefficient  Atom+Function         Bfn.  Coefficient  Atom+Function  
  ----- ------------  ---------------      ----- ------------  ---------------
     7      1.387880  1 N  px                 3     -1.231537  1 N  px         
    11     -0.558592  1 N  px                 9      0.284617  1 N  pz         
     8     -0.261999  1 N  py                 5     -0.252556  1 N  pz         
     4      0.232485  1 N  py         

 Vector   12  Occ=0.000000D+00  E= 3.521964D+00
              MO Center=  1.9D-17,  5.9D-17, -3.8D-17, r^2= 5.7D-01
   Bfn.  Coefficient  Atom+Function         Bfn.  Coefficient  Atom+Function  
  ----- ------------  ---------------      ----- ------------  ---------------
     8      1.167654  1 N  py                 4     -1.036119  1 N  py         
     9     -0.755963  1 N  pz                 5      0.670804  1 N  pz         
    12     -0.469956  1 N  py                 7      0.375454  1 N  px         
     3     -0.333159  1 N  px                13      0.304259  1 N  pz         
    11     -0.151112  1 N  px         

 Vector   13  Occ=0.000000D+00  E= 3.498384D+01
              MO Center= -3.7D-19,  1.3D-18,  1.3D-18, r^2= 4.9D-02
   Bfn.  Coefficient  Atom+Function         Bfn.  Coefficient  Atom+Function  
  ----- ------------  ---------------      ----- ------------  ---------------
     2     -2.244943  1 N  s                  1      2.143547  1 N  s          
     6      0.271349  1 N  s                 10     -0.154418  1 N  s          


                     DFT Final Beta Molecular Orbital Analysis
                     -----------------------------------------

 Vector    1  Occ=1.000000D+00  E=-1.436310D+01
              MO Center=  4.9D-17, -1.5D-17,  3.8D-17, r^2= 2.0D-02
   Bfn.  Coefficient  Atom+Function         Bfn.  Coefficient  Atom+Function  
  ----- ------------  ---------------      ----- ------------  ---------------
     1      0.558364  1 N  s                  2      0.466302  1 N  s          

 Vector    2  Occ=1.000000D+00  E=-6.103723D-01
              MO Center= -8.8D-17,  8.0D-17, -2.9D-17, r^2= 6.4D-01
   Bfn.  Coefficient  Atom+Function         Bfn.  Coefficient  Atom+Function  
  ----- ------------  ---------------      ----- ------------  ---------------
     6      0.560593  1 N  s                 10      0.556335  1 N  s          
     2     -0.199577  1 N  s          

 Vector    3  Occ=0.000000D+00  E=-1.007235D-01
              MO Center= -1.4D-17, -5.0D-17,  3.3D-17, r^2= 9.0D-01
   Bfn.  Coefficient  Atom+Function         Bfn.  Coefficient  Atom+Function  
  ----- ------------  ---------------      ----- ------------  ---------------
    12      0.461499  1 N  py                 8      0.302604  1 N  py         
    13     -0.300478  1 N  pz                 4      0.229453  1 N  py         
     9     -0.197023  1 N  pz         

 Vector    4  Occ=0.000000D+00  E=-1.007235D-01
              MO Center=  2.1D-16, -3.2D-17,  3.8D-17, r^2= 9.0D-01
   Bfn.  Coefficient  Atom+Function         Bfn.  Coefficient  Atom+Function  
  ----- ------------  ---------------      ----- ------------  ---------------
    11      0.549487  1 N  px                 7      0.360298  1 N  px         
     3      0.273200  1 N  px         

 Vector    5  Occ=0.000000D+00  E=-1.007230D-01
              MO Center=  5.0D-18, -4.3D-17, -6.4D-17, r^2= 9.0D-01
   Bfn.  Coefficient  Atom+Function         Bfn.  Coefficient  Atom+Function  
  ----- ------------  ---------------      ----- ------------  ---------------
    13      0.467882  1 N  pz                12      0.314626  1 N  py         
     9      0.306788  1 N  pz                 5      0.232626  1 N  pz         
     8      0.206299  1 N  py                 4      0.156429  1 N  py         

 Vector    6  Occ=0.000000D+00  E= 6.329232D-01
              MO Center=  9.0D-16,  3.3D-15, -2.1D-15, r^2= 1.6D+00
   Bfn.  Coefficient  Atom+Function         Bfn.  Coefficient  Atom+Function  
  ----- ------------  ---------------      ----- ------------  ---------------
    12      0.912931  1 N  py                 8     -0.711895  1 N  py         
    13     -0.594358  1 N  pz                 9      0.463475  1 N  pz         
    11      0.250607  1 N  px                 4     -0.223730  1 N  py         
     7     -0.195421  1 N  px         

 Vector    7  Occ=0.000000D+00  E= 6.329232D-01
              MO Center= -3.7D-15,  5.7D-16, -6.7D-16, r^2= 1.6D+00
   Bfn.  Coefficient  Atom+Function         Bfn.  Coefficient  Atom+Function  
  ----- ------------  ---------------      ----- ------------  ---------------
    11      1.086963  1 N  px                 7     -0.847603  1 N  px         
     3     -0.266380  1 N  px                13      0.198535  1 N  pz         
    12     -0.169125  1 N  py                 9     -0.154815  1 N  pz         

 Vector    8  Occ=0.000000D+00  E= 6.329235D-01
              MO Center=  4.5D-17, -3.9D-16, -5.8D-16, r^2= 1.6D+00
   Bfn.  Coefficient  Atom+Function         Bfn.  Coefficient  Atom+Function  
  ----- ------------  ---------------      ----- ------------  ---------------
    13      0.925651  1 N  pz                 9     -0.721815  1 N  pz         
    12      0.622464  1 N  py                 8     -0.485392  1 N  py         
     5     -0.226847  1 N  pz                 4     -0.152546  1 N  py         

 Vector    9  Occ=0.000000D+00  E= 6.878243D-01
              MO Center=  2.6D-15, -3.4D-15,  3.4D-15, r^2= 1.4D+00
   Bfn.  Coefficient  Atom+Function         Bfn.  Coefficient  Atom+Function  
  ----- ------------  ---------------      ----- ------------  ---------------
     6      1.617478  1 N  s                 10     -1.496638  1 N  s          
     2     -0.249591  1 N  s          

 Vector   10  Occ=0.000000D+00  E= 3.648635D+00
              MO Center=  3.8D-17,  1.4D-16, -9.0D-17, r^2= 5.5D-01
   Bfn.  Coefficient  Atom+Function         Bfn.  Coefficient  Atom+Function  
  ----- ------------  ---------------      ----- ------------  ---------------
     8      1.165221  1 N  py                 4     -1.048241  1 N  py         
     9     -0.758552  1 N  pz                 5      0.682399  1 N  pz         
    12     -0.461887  1 N  py                 7      0.320699  1 N  px         
    13      0.300686  1 N  pz                 3     -0.288503  1 N  px         

 Vector   11  Occ=0.000000D+00  E= 3.648635D+00
              MO Center=  2.3D-17, -3.5D-18,  4.1D-18, r^2= 5.5D-01
   Bfn.  Coefficient  Atom+Function         Bfn.  Coefficient  Atom+Function  
  ----- ------------  ---------------      ----- ------------  ---------------
     7      1.387314  1 N  px                 3     -1.248038  1 N  px         
    11     -0.549923  1 N  px                 9      0.253879  1 N  pz         
     5     -0.228392  1 N  pz                 8     -0.216551  1 N  py         
     4      0.194811  1 N  py         

 Vector   12  Occ=0.000000D+00  E= 3.648636D+00
              MO Center= -2.9D-18,  2.5D-17,  3.7D-17, r^2= 5.5D-01
   Bfn.  Coefficient  Atom+Function         Bfn.  Coefficient  Atom+Function  
  ----- ------------  ---------------      ----- ------------  ---------------
     9      1.181580  1 N  pz                 5     -1.062959  1 N  pz         
     8      0.794578  1 N  py                 4     -0.714809  1 N  py         
    13     -0.468372  1 N  pz                12     -0.314966  1 N  py         

 Vector   13  Occ=0.000000D+00  E= 3.504433D+01
              MO Center=  8.9D-19,  5.0D-20,  1.3D-18, r^2= 4.9D-02
   Bfn.  Coefficient  Atom+Function         Bfn.  Coefficient  Atom+Function  
  ----- ------------  ---------------      ----- ------------  ---------------
     2     -2.245456  1 N  s                  1      2.143037  1 N  s          
     6      0.272045  1 N  s                 10     -0.154476  1 N  s          


   alpha - beta orbital overlaps 
   ----------------------------- 


   alpha      1      2      3      4      5      6      7      8      9     10
    beta      1      2      5      4      3      8      6      7      9     12
 overlap   1.000  0.999  0.993  0.993  0.993  0.992  0.992  0.992  0.999  1.000


   alpha     11     12     13
    beta     11     10     13
 overlap   0.999  0.999  1.000

     --------------------------
     Expectation value of S2:  
     --------------------------
      <S2> =      3.7525 (Exact =     3.7500)


 Parallel integral file used       1 records with       0 large values


 Task  times  cpu:        0.2s     wall:        0.3s
 Summary of allocated global arrays
-----------------------------------
  No active global arrays



                         GA Statistics for process    0
                         ------------------------------

       create   destroy   get      put      acc     scatter   gather  read&inc
calls:  174      174     1360      598      370        0        0       97     
number of processes/call 1.00e+00 1.00e+00 1.00e+00 0.00e+00 0.00e+00
bytes total:             1.05e+06 2.49e+05 5.00e+05 0.00e+00 0.00e+00 7.76e+02
bytes remote:            0.00e+00 0.00e+00 0.00e+00 0.00e+00 0.00e+00 0.00e+00
Max memory consumed for GA by this process: 87880 bytes
MA_summarize_allocated_blocks: starting scan ...
MA_summarize_allocated_blocks: scan completed: 0 heap blocks, 0 stack blocks
MA usage statistics:

	allocation statistics:
					      heap	     stack
					      ----	     -----
	current number of blocks	         0	         0
	maximum number of blocks	        23	        47
	current total bytes		         0	         0
	maximum total bytes		   1942144	  17743136
	maximum total K-bytes		      1943	     17744
	maximum total M-bytes		         2	        18


                                NWChem Input Module
                                -------------------





                                     CITATION
                                     --------
                Please cite the following reference when publishing
                           results obtained with NWChem:

                 M. Valiev, E.J. Bylaska, N. Govind, K. Kowalski,
              T.P. Straatsma, H.J.J. van Dam, D. Wang, J. Nieplocha,
                        E. Apra, T.L. Windus, W.A. de Jong
                 "NWChem: a comprehensive and scalable open-source
                  solution for large scale molecular simulations"
                      Comput. Phys. Commun. 181, 1477 (2010)
                           doi:10.1016/j.cpc.2010.04.018

                              AUTHORS & CONTRIBUTORS
                              ----------------------
          E. Apra, E. J. Bylaska, W. A. de Jong, N. Govind, K. Kowalski,
       T. P. Straatsma, M. Valiev, H. J. J. van Dam, D. Wang, T. L. Windus,
        J. Hammond, J. Autschbach, K. Bhaskaran-Nair, J. Brabec, K. Lopata,
     F. Aquino, S. Hirata, M. T. Hackler, J. Mullin, P. Nichols, R. Peverati,
    J. Pittner, Y. Zhao, P.-D. Fan, R. J. Harrison, M. Dupuis, D. Silverstein,
    D. M. A. Smith, J. Nieplocha, V. Tipparaju, M. Krishnan, B. E. Van Kuiken,
        A. Vazquez-Mayagoitia, L. Jensen, M. Swart, Q. Wu, T. Van Voorhis,
     A. A. Auer, M. Nooijen, L. D. Crosby, E. Brown, G. Cisneros, G. I. Fann,
     H. Fruchtl, J. Garza, K. Hirao, R. Kendall, J. A. Nichols, K. Tsemekhman,
      K. Wolinski, J. Anchell, D. Bernholdt, P. Borowski, T. Clark, D. Clerc,
      H. Dachsel, M. Deegan, K. Dyall, D. Elwood, E. Glendening, M. Gutowski,
      A. Hess, J. Jaffe, B. Johnson, J. Ju, R. Kobayashi, R. Kutteh, Z. Lin,
   R. Littlefield, X. Long, B. Meng, T. Nakajima, S. Niu, L. Pollack, M. Rosing,
   K. Glaesemann, G. Sandrone, M. Stave, H. Taylor, G. Thomas, J. H. van Lenthe,
                                A. Wong, Z. Zhang.

 Total times  cpu:        0.2s     wall:        0.4s
