 argument  1 = N2.nw
                                         
                                         


              Northwest Computational Chemistry Package (NWChem) 6.3
              ------------------------------------------------------


                    Environmental Molecular Sciences Laboratory
                       Pacific Northwest National Laboratory
                                Richland, WA 99352

                              Copyright (c) 1994-2012
                       Pacific Northwest National Laboratory
                            Battelle Memorial Institute

             NWChem is an open-source computational chemistry package
                        distributed under the terms of the
                      Educational Community License (ECL) 2.0
             A copy of the license is included with this distribution
                              in the LICENSE.TXT file

                                  ACKNOWLEDGMENT
                                  --------------

            This software and its documentation were developed at the
            EMSL at Pacific Northwest National Laboratory, a multiprogram
            national laboratory, operated for the U.S. Department of Energy
            by Battelle under Contract Number DE-AC05-76RL01830. Support
            for this work was provided by the Department of Energy Office
            of Biological and Environmental Research, Office of Basic
            Energy Sciences, and the Office of Advanced Scientific Computing.


           Job information
           ---------------

    hostname        = ChensPro.local
    program         = nwchem
    date            = Sun Apr 19 22:37:07 2015

    compiled        = Sat_Jul_20_13:52:43_2013
    source          = /Users/shyuepingong/Software/nwchem-6.3
    nwchem branch   = 6.3
    nwchem revision = 24277
    ga revision     = 10379
    input           = N2.nw
    prefix          = N2.
    data base       = ./N2.db
    status          = startup
    nproc           =        1
    time left       =     -1s



           Memory information
           ------------------

    heap     =   32768001 doubles =    250.0 Mbytes
    stack    =   32768001 doubles =    250.0 Mbytes
    global   =   65536000 doubles =    500.0 Mbytes (distinct from heap & stack)
    total    =  131072002 doubles =   1000.0 Mbytes
    verify   = yes
    hardfail = no 


           Directory information
           ---------------------

  0 permanent = .
  0 scratch   = .




                                NWChem Input Module
                                -------------------



 Scaling coordinates for geometry "geometry" by  1.889725989
 (inverse scale =  0.529177249)

 ORDER OF PRIMARY AXIS IS BEING SET TO 4
 D4H symmetry detected

          ------
          auto-z
          ------


                             Geometry "geometry" -> ""
                             -------------------------

 Output coordinates in angstroms (scale by  1.889725989 to convert to a.u.)

  No.       Tag          Charge          X              Y              Z
 ---- ---------------- ---------- -------------- -------------- --------------
    1 N                    7.0000     0.00000000     0.00000000    -0.55000000
    2 N                    7.0000     0.00000000     0.00000000     0.55000000

      Atomic Mass 
      ----------- 

      N                 14.003070


 Effective nuclear repulsion energy (a.u.)      23.5724410918

            Nuclear Dipole moment (a.u.) 
            ----------------------------
        X                 Y               Z
 ---------------- ---------------- ----------------
     0.0000000000     0.0000000000     0.0000000000

      Symmetry information
      --------------------

 Group name             D4h       
 Group number             28
 Group order              16
 No. of unique centers     1

      Symmetry unique atoms

     1



                                Z-matrix (autoz)
                                -------- 

 Units are Angstrom for bonds and degrees for angles

      Type          Name      I     J     K     L     M      Value
      ----------- --------  ----- ----- ----- ----- ----- ----------
    1 Stretch                  1     2                       1.10000


            XYZ format geometry
            -------------------
     2
 geometry
 N                     0.00000000     0.00000000    -0.55000000
 N                     0.00000000     0.00000000     0.55000000

 ==============================================================================
                                internuclear distances
 ------------------------------------------------------------------------------
       center one      |      center two      | atomic units |  angstroms
 ------------------------------------------------------------------------------
    2 N                |   1 N                |     2.07870  |     1.10000
 ------------------------------------------------------------------------------
                         number of included internuclear distances:          1
 ==============================================================================



                                  N2 dft optimize
                                  ---------------
  library name resolved from: environment
  library file name is: </Users/chenzheng/Google Drive/nano266/resources/nwchem_basis/>
  
                      Basis "ao basis" -> "" (cartesian)
                      -----
  N (Nitrogen)
  ------------
            Exponent  Coefficients 
       -------------- ---------------------------------------------------------
  1 S  4.17351100E+03  0.001835
  1 S  6.27457900E+02  0.013995
  1 S  1.42902100E+02  0.068587
  1 S  4.02343300E+01  0.232241
  1 S  1.28202100E+01  0.469070
  1 S  4.39043700E+00  0.360455

  2 S  1.16263580E+01 -0.114961
  2 S  2.71628000E+00 -0.169118
  2 S  7.72218000E-01  1.145852

  3 P  1.16263580E+01  0.067580
  3 P  2.71628000E+00  0.323907
  3 P  7.72218000E-01  0.740895

  4 S  2.12031300E-01  1.000000

  5 P  2.12031300E-01  1.000000

  6 S  6.39000000E-02  1.000000

  7 P  6.39000000E-02  1.000000

  8 D  8.00000000E-01  1.000000



 Summary of "ao basis" -> "" (cartesian)
 ------------------------------------------------------------------------------
       Tag                 Description            Shells   Functions and Types
 ---------------- ------------------------------  ------  ---------------------
 N                          6-31+G*                  8       19   4s3p1d


  pbe96 is a nonlocal functional; adding pw91lda local functional. 


                           NWChem Geometry Optimization
                           ----------------------------




                                  N2 dft optimize


 maximum gradient threshold         (gmax) =   0.000450
 rms gradient threshold             (grms) =   0.000300
 maximum cartesian step threshold   (xmax) =   0.001800
 rms cartesian step threshold       (xrms) =   0.001200
 fixed trust radius                (trust) =   0.300000
 maximum step size to saddle      (sadstp) =   0.100000
 energy precision                  (eprec) =   5.0D-06
 maximum number of steps          (nptopt) =   20
 initial hessian option           (inhess) =    0
 line search option               (linopt) =    1
 hessian update option            (modupd) =    1
 saddle point option              (modsad) =    0
 initial eigen-mode to follow     (moddir) =    0
 initial variable to follow       (vardir) =    0
 follow first negative mode     (firstneg) =    T
 apply conjugacy                    (opcg) =    F
 source of zmatrix                         =   autoz   


          -------------------
          Energy Minimization
          -------------------


 Names of Z-matrix variables 
    1         

 Variables with the same non-blank name are constrained to be equal


 Using diagonal initial Hessian 
 Scaling for Hessian diagonals: bonds = 1.00  angles = 0.25  torsions = 0.10

          --------
          Step   0
          --------


                         Geometry "geometry" -> "geometry"
                         ---------------------------------

 Output coordinates in angstroms (scale by  1.889725989 to convert to a.u.)

  No.       Tag          Charge          X              Y              Z
 ---- ---------------- ---------- -------------- -------------- --------------
    1 N                    7.0000     0.00000000     0.00000000    -0.55000000
    2 N                    7.0000     0.00000000     0.00000000     0.55000000

      Atomic Mass 
      ----------- 

      N                 14.003070


 Effective nuclear repulsion energy (a.u.)      23.5724410918

            Nuclear Dipole moment (a.u.) 
            ----------------------------
        X                 Y               Z
 ---------------- ---------------- ----------------
     0.0000000000     0.0000000000     0.0000000000

      Symmetry information
      --------------------

 Group name             D4h       
 Group number             28
 Group order              16
 No. of unique centers     1

      Symmetry unique atoms

     1


                                 NWChem DFT Module
                                 -----------------


                                  N2 dft optimize


  Caching 1-el integrals 

            General Information
            -------------------
          SCF calculation type: DFT
          Wavefunction type:  closed shell.
          No. of atoms     :     2
          No. of electrons :    14
           Alpha electrons :     7
            Beta electrons :     7
          Charge           :     0
          Spin multiplicity:     1
          Use of symmetry is: on ; symmetry adaption is: on 
          Maximum number of iterations:  30
          AO basis - number of functions:    38
                     number of shells:    16
          Convergence on energy requested: 1.00D-06
          Convergence on density requested: 1.00D-05
          Convergence on gradient requested: 5.00D-04

              XC Information
              --------------
          PerdewBurkeErnzerhof Exchange Functional  1.000          
            Perdew 1991 LDA Correlation Functional  1.000 local    
           PerdewBurkeErnz. Correlation Functional  1.000 non-local

             Grid Information
             ----------------
          Grid used for XC integration:  medium    
          Radial quadrature: Mura-Knowles        
          Angular quadrature: Lebedev. 
          Tag              B.-S. Rad. Rad. Pts. Rad. Cut. Ang. Pts.
          ---              ---------- --------- --------- ---------
          N                   0.65       49           8.0       434
          Grid pruning is: on 
          Number of quadrature shells:    49
          Spatial weights used:  Erf1

          Convergence Information
          -----------------------
          Convergence aids based upon iterative change in 
          total energy or number of iterations. 
          Levelshifting, if invoked, occurs when the 
          HOMO/LUMO gap drops below (HL_TOL): 1.00D-02
          DIIS, if invoked, will attempt to extrapolate 
          using up to (NFOCK): 10 stored Fock matrices.

                    Damping( 0%)  Levelshifting(0.5)       DIIS
                  --------------- ------------------- ---------------
          dE  on:    start            ASAP                start   
          dE off:    2 iters         30 iters            30 iters 


      Screening Tolerance Information
      -------------------------------
          Density screening/tol_rho: 1.00D-10
          AO Gaussian exp screening on grid/accAOfunc:  14
          CD Gaussian exp screening on grid/accCDfunc:  20
          XC Gaussian exp screening on grid/accXCfunc:  20
          Schwarz screening/accCoul: 1.00D-08


      Superposition of Atomic Density Guess
      -------------------------------------

 Sum of atomic energies:        -108.59128415

      Non-variational initial energy
      ------------------------------

 Total energy =    -109.086212
 1-e energy   =    -193.626428
 2-e energy   =      60.967775
 HOMO         =      -0.432196
 LUMO         =       0.010758


      Symmetry analysis of molecular orbitals - initial
      -------------------------------------------------


 !! scf_movecs_sym_adapt:    4 vectors were symmetry contaminated

  Symmetry fudging

 !! scf_movecs_sym_adapt:    4 vectors were symmetry contaminated

  Numbering of irreducible representations: 

     1 a1g         2 a1u         3 a2g         4 a2u         5 b1g     
     6 b1u         7 b2g         8 b2u         9 eg         10 eu      

  Orbital symmetries:

     1 a1g         2 a2u         3 a1g         4 a2u         5 eu      
     6 eu          7 a1g         8 eg          9 eg         10 a2u     
    11 a1g        12 eu         13 eu         14 a1g        15 eg      
    16 eg         17 a2u     

   Time after variat. SCF:      0.1
   Time prior to 1st pass:      0.1

 Integral file          = ./N2.aoints.0
 Record size in doubles =  65536        No. of integs per rec  =  43688
 Max. records in memory =      2        Max. records in file   = 184516
 No. of bits per label  =      8        No. of bits per value  =     64


 #quartets = 6.345D+03 #integrals = 5.603D+04 #direct =  0.0% #cached =100.0%


 Grid_pts file          = ./N2.gridpts.0
 Record size in doubles =  12289        No. of grid_pts per rec  =   3070
 Max. records in memory =      9        Max. recs in file   =    984008


           Memory utilization after 1st SCF pass: 
           Heap Space remaining (MW):       32.52            32524411
          Stack Space remaining (MW):       32.77            32767697

   convergence    iter        energy       DeltaE   RMS-Dens  Diis-err    time
 ---------------- ----- ----------------- --------- --------- ---------  ------
 d= 0,ls=0.0,diis     1   -109.3902951902 -1.33D+02  1.70D-02  2.73D-01     0.2
 d= 0,ls=0.0,diis     2   -109.4032642251 -1.30D-02  1.52D-02  5.93D-02     0.2
 d= 0,ls=0.0,diis     3   -109.4096236727 -6.36D-03  4.57D-03  7.80D-03     0.3
 d= 0,ls=0.0,diis     4   -109.4105932543 -9.70D-04  1.52D-04  5.54D-06     0.3
 d= 0,ls=0.0,diis     5   -109.4105939250 -6.71D-07  1.09D-05  7.65D-08     0.3
 d= 0,ls=0.0,diis     6   -109.4105939329 -7.83D-09  8.80D-07  1.59D-10     0.3


         Total DFT energy =     -109.410593932877
      One electron energy =     -194.262250762130
           Coulomb energy =       74.822131484305
    Exchange-Corr. energy =      -13.542915746856
 Nuclear repulsion energy =       23.572441091805

 Numeric. integr. density =       13.999999981611

     Total iterative time =      0.2s



                  Occupations of the irreducible representations
                  ----------------------------------------------

                     irrep           alpha         beta
                     --------     --------     --------
                     a1g               3.0          3.0
                     a1u               0.0          0.0
                     a2g               0.0          0.0
                     a2u               2.0          2.0
                     b1g               0.0          0.0
                     b1u               0.0          0.0
                     b2g               0.0          0.0
                     b2u               0.0          0.0
                     eg                0.0          0.0
                     eu                2.0          2.0


                       DFT Final Molecular Orbital Analysis
                       ------------------------------------

 Vector    1  Occ=2.000000D+00  E=-1.411551D+01  Symmetry=a1g
              MO Center=  0.0D+00,  0.0D+00,  0.0D+00, r^2= 3.2D-01
   Bfn.  Coefficient  Atom+Function         Bfn.  Coefficient  Atom+Function  
  ----- ------------  ---------------      ----- ------------  ---------------
     1      0.701626  1 N  s                 20      0.701626  2 N  s          

 Vector    2  Occ=2.000000D+00  E=-1.411423D+01  Symmetry=a2u
              MO Center=  1.3D-19,  3.3D-19,  1.7D-16, r^2= 3.2D-01
   Bfn.  Coefficient  Atom+Function         Bfn.  Coefficient  Atom+Function  
  ----- ------------  ---------------      ----- ------------  ---------------
     1      0.701751  1 N  s                 20     -0.701751  2 N  s          

 Vector    3  Occ=2.000000D+00  E=-1.044300D+00  Symmetry=a1g
              MO Center= -4.0D-19, -6.1D-19,  2.8D-16, r^2= 4.3D-01
   Bfn.  Coefficient  Atom+Function         Bfn.  Coefficient  Atom+Function  
  ----- ------------  ---------------      ----- ------------  ---------------
     2      0.334166  1 N  s                 21      0.334166  2 N  s          
     5      0.231691  1 N  pz                24     -0.231691  2 N  pz         
     6      0.212164  1 N  s                 25      0.212164  2 N  s          
     1     -0.161932  1 N  s                 20     -0.161932  2 N  s          

 Vector    4  Occ=2.000000D+00  E=-4.978690D-01  Symmetry=a2u
              MO Center= -3.5D-18,  1.7D-17,  2.9D-15, r^2= 1.3D+00
   Bfn.  Coefficient  Atom+Function         Bfn.  Coefficient  Atom+Function  
  ----- ------------  ---------------      ----- ------------  ---------------
     6      0.576460  1 N  s                 25     -0.576460  2 N  s          
     2      0.335550  1 N  s                 21     -0.335550  2 N  s          
    10     -0.331417  1 N  s                 29      0.331417  2 N  s          
     5     -0.210237  1 N  pz                24     -0.210237  2 N  pz         
     1     -0.152695  1 N  s                 20      0.152695  2 N  s          

 Vector    5  Occ=2.000000D+00  E=-4.281170D-01  Symmetry=eu
              MO Center= -1.1D-16, -2.4D-16, -1.7D-16, r^2= 8.9D-01
   Bfn.  Coefficient  Atom+Function         Bfn.  Coefficient  Atom+Function  
  ----- ------------  ---------------      ----- ------------  ---------------
     4      0.428065  1 N  py                23      0.428065  2 N  py         
     8      0.204362  1 N  py                27      0.204362  2 N  py         
     3      0.168541  1 N  px                22      0.168541  2 N  px         

 Vector    6  Occ=2.000000D+00  E=-4.281170D-01  Symmetry=eu
              MO Center= -4.2D-17, -5.3D-17, -3.6D-16, r^2= 8.9D-01
   Bfn.  Coefficient  Atom+Function         Bfn.  Coefficient  Atom+Function  
  ----- ------------  ---------------      ----- ------------  ---------------
     3      0.428065  1 N  px                22      0.428065  2 N  px         
     7      0.204362  1 N  px                26      0.204362  2 N  px         
     4     -0.168541  1 N  py                23     -0.168541  2 N  py         

 Vector    7  Occ=2.000000D+00  E=-3.769265D-01  Symmetry=a1g
              MO Center= -7.5D-18, -6.8D-18, -4.3D-15, r^2= 1.4D+00
   Bfn.  Coefficient  Atom+Function         Bfn.  Coefficient  Atom+Function  
  ----- ------------  ---------------      ----- ------------  ---------------
     5      0.457494  1 N  pz                24     -0.457494  2 N  pz         
     6     -0.267628  1 N  s                 25     -0.267628  2 N  s          
     9      0.176281  1 N  pz                28     -0.176281  2 N  pz         

 Vector    8  Occ=0.000000D+00  E=-7.354775D-02  Symmetry=eg
              MO Center=  9.7D-18,  8.0D-17, -5.6D-17, r^2= 1.5D+00
   Bfn.  Coefficient  Atom+Function         Bfn.  Coefficient  Atom+Function  
  ----- ------------  ---------------      ----- ------------  ---------------
     3      0.487298  1 N  px                22     -0.487298  2 N  px         
     7      0.433108  1 N  px                26     -0.433108  2 N  px         
    11      0.305057  1 N  px                30     -0.305057  2 N  px         
     4      0.152385  1 N  py                23     -0.152385  2 N  py         

 Vector    9  Occ=0.000000D+00  E=-7.354775D-02  Symmetry=eg
              MO Center=  3.2D-17, -1.3D-17,  2.2D-16, r^2= 1.5D+00
   Bfn.  Coefficient  Atom+Function         Bfn.  Coefficient  Atom+Function  
  ----- ------------  ---------------      ----- ------------  ---------------
     4      0.487298  1 N  py                23     -0.487298  2 N  py         
     8      0.433108  1 N  py                27     -0.433108  2 N  py         
    12      0.305057  1 N  py                31     -0.305057  2 N  py         
     3     -0.152385  1 N  px                22      0.152385  2 N  px         

 Vector   10  Occ=0.000000D+00  E= 5.445965D-02  Symmetry=a1g
              MO Center= -1.2D-16, -6.8D-17,  4.2D-17, r^2= 6.1D+00
   Bfn.  Coefficient  Atom+Function         Bfn.  Coefficient  Atom+Function  
  ----- ------------  ---------------      ----- ------------  ---------------
    10      0.884072  1 N  s                 29      0.884072  2 N  s          
     6     -0.661850  1 N  s                 25     -0.661850  2 N  s          
    13     -0.272037  1 N  pz                32      0.272037  2 N  pz         
     9      0.184626  1 N  pz                28     -0.184626  2 N  pz         

 Vector   11  Occ=0.000000D+00  E= 7.324096D-02  Symmetry=a2u
              MO Center=  3.2D-17,  9.1D-18, -9.8D-14, r^2= 9.0D+00
   Bfn.  Coefficient  Atom+Function         Bfn.  Coefficient  Atom+Function  
  ----- ------------  ---------------      ----- ------------  ---------------
    10     10.803299  1 N  s                 29    -10.803299  2 N  s          
    13      3.631239  1 N  pz                32      3.631239  2 N  pz         
     9     -0.186283  1 N  pz                28     -0.186283  2 N  pz         

 Vector   12  Occ=0.000000D+00  E= 8.385150D-02  Symmetry=eu
              MO Center= -3.4D-25,  1.0D-25, -1.9D-16, r^2= 6.6D+00
   Bfn.  Coefficient  Atom+Function         Bfn.  Coefficient  Atom+Function  
  ----- ------------  ---------------      ----- ------------  ---------------
    11      0.588794  1 N  px                30      0.588794  2 N  px         
     7     -0.194165  1 N  px                26     -0.194165  2 N  px         
    12     -0.176622  1 N  py                31     -0.176622  2 N  py         

 Vector   13  Occ=0.000000D+00  E= 8.385150D-02  Symmetry=eu
              MO Center=  2.1D-26,  7.2D-26,  3.3D-16, r^2= 6.6D+00
   Bfn.  Coefficient  Atom+Function         Bfn.  Coefficient  Atom+Function  
  ----- ------------  ---------------      ----- ------------  ---------------
    12      0.588794  1 N  py                31      0.588794  2 N  py         
     8     -0.194165  1 N  py                27     -0.194165  2 N  py         
    11      0.176622  1 N  px                30      0.176622  2 N  px         

 Vector   14  Occ=0.000000D+00  E= 1.331197D-01  Symmetry=a1g
              MO Center=  2.7D-16,  2.3D-16,  8.4D-14, r^2= 7.6D+00
   Bfn.  Coefficient  Atom+Function         Bfn.  Coefficient  Atom+Function  
  ----- ------------  ---------------      ----- ------------  ---------------
    13      1.534989  1 N  pz                32     -1.534989  2 N  pz         
     6     -0.397652  1 N  s                 25     -0.397652  2 N  s          

 Vector   15  Occ=0.000000D+00  E= 1.634251D-01  Symmetry=eg
              MO Center=  5.8D-22, -3.7D-23, -4.4D-16, r^2= 8.2D+00
   Bfn.  Coefficient  Atom+Function         Bfn.  Coefficient  Atom+Function  
  ----- ------------  ---------------      ----- ------------  ---------------
    11      2.160927  1 N  px                30     -2.160927  2 N  px         
     7     -0.378852  1 N  px                26      0.378852  2 N  px         
     3     -0.214558  1 N  px                22      0.214558  2 N  px         

 Vector   16  Occ=0.000000D+00  E= 1.634251D-01  Symmetry=eg
              MO Center=  1.2D-17,  3.3D-18,  4.4D-16, r^2= 8.2D+00
   Bfn.  Coefficient  Atom+Function         Bfn.  Coefficient  Atom+Function  
  ----- ------------  ---------------      ----- ------------  ---------------
    12      2.160927  1 N  py                31     -2.160927  2 N  py         
     8     -0.378852  1 N  py                27      0.378852  2 N  py         
     4     -0.214558  1 N  py                23      0.214558  2 N  py         

 Vector   17  Occ=0.000000D+00  E= 2.524337D-01  Symmetry=a2u
              MO Center=  8.2D-19,  3.3D-17, -1.2D-14, r^2= 8.8D+00
   Bfn.  Coefficient  Atom+Function         Bfn.  Coefficient  Atom+Function  
  ----- ------------  ---------------      ----- ------------  ---------------
    10     39.233206  1 N  s                 29    -39.233206  2 N  s          
    13     10.466543  1 N  pz                32     10.466543  2 N  pz         
     6     -0.621666  1 N  s                 25      0.621666  2 N  s          
     9      0.360796  1 N  pz                28      0.360796  2 N  pz         

 Vector   18  Occ=0.000000D+00  E= 4.825109D-01  Symmetry=a2u
              MO Center= -2.7D-18,  1.8D-18, -1.3D-15, r^2= 3.0D+00
   Bfn.  Coefficient  Atom+Function         Bfn.  Coefficient  Atom+Function  
  ----- ------------  ---------------      ----- ------------  ---------------
    10     -4.376055  1 N  s                 29      4.376055  2 N  s          
     6      4.322963  1 N  s                 25     -4.322963  2 N  s          
     9      2.856990  1 N  pz                28      2.856990  2 N  pz         
    13     -1.560580  1 N  pz                32     -1.560580  2 N  pz         
     5      0.332301  1 N  pz                24      0.332301  2 N  pz         

 Vector   19  Occ=0.000000D+00  E= 7.161557D-01  Symmetry=a1g
              MO Center=  2.8D-16, -1.6D-17,  1.0D-14, r^2= 3.5D+00
   Bfn.  Coefficient  Atom+Function         Bfn.  Coefficient  Atom+Function  
  ----- ------------  ---------------      ----- ------------  ---------------
     9      1.160956  1 N  pz                28     -1.160956  2 N  pz         
    13     -0.941641  1 N  pz                32      0.941641  2 N  pz         
     5     -0.489582  1 N  pz                24      0.489582  2 N  pz         
     2     -0.189057  1 N  s                 21     -0.189057  2 N  s          


 center of mass
 --------------
 x =   0.00000000 y =   0.00000000 z =   0.00000000

 moments of inertia (a.u.)
 ------------------
          30.253547438217           0.000000000000           0.000000000000
           0.000000000000          30.253547438217           0.000000000000
           0.000000000000           0.000000000000           0.000000000000

     Multipole analysis of the density
     ---------------------------------

     L   x y z        total         alpha         beta         nuclear
     -   - - -        -----         -----         ----         -------
     0   0 0 0     -0.000000     -7.000000     -7.000000     14.000000

     1   1 0 0      0.000000      0.000000      0.000000      0.000000
     1   0 1 0      0.000000      0.000000      0.000000      0.000000
     1   0 0 1      0.000000      0.000000      0.000000      0.000000

     2   2 0 0     -7.683541     -3.841771     -3.841771      0.000000
     2   1 1 0      0.000000      0.000000      0.000000      0.000000
     2   1 0 1     -0.000000     -0.000000     -0.000000      0.000000
     2   0 2 0     -7.683541     -3.841771     -3.841771      0.000000
     2   0 1 1      0.000000      0.000000      0.000000      0.000000
     2   0 0 2     -8.891657    -12.007557    -12.007557     15.123457


 Parallel integral file used       2 records with       0 large values



                            NWChem DFT Gradient Module
                            --------------------------


                                  N2 dft optimize



  charge          =   0.00
  wavefunction    = closed shell

  Using symmetry


                         DFT ENERGY GRADIENTS

    atom               coordinates                        gradient
                 x          y          z           x          y          z
   1 N       0.000000   0.000000  -1.039349    0.000000   0.000000   0.047772
   2 N       0.000000   0.000000   1.039349    0.000000   0.000000  -0.047772

                 ----------------------------------------
                 |  Time  |  1-e(secs)   |  2-e(secs)   |
                 ----------------------------------------
                 |  CPU   |       0.00   |       0.13   |
                 ----------------------------------------
                 |  WALL  |       0.00   |       0.13   |
                 ----------------------------------------

@ Step       Energy      Delta E   Gmax     Grms     Xrms     Xmax   Walltime
@ ---- ---------------- -------- -------- -------- -------- -------- --------
@    0    -109.41059393  0.0D+00  0.04777  0.04777  0.00000  0.00000      0.5
                                                                    



                                Z-matrix (autoz)
                                -------- 

 Units are Angstrom for bonds and degrees for angles

      Type          Name      I     J     K     L     M      Value     Gradient
      ----------- --------  ----- ----- ----- ----- ----- ---------- ----------
    1 Stretch                  1     2                       1.10000   -0.04777


                                 NWChem DFT Module
                                 -----------------


                                  N2 dft optimize


  Caching 1-el integrals 

            General Information
            -------------------
          SCF calculation type: DFT
          Wavefunction type:  closed shell.
          No. of atoms     :     2
          No. of electrons :    14
           Alpha electrons :     7
            Beta electrons :     7
          Charge           :     0
          Spin multiplicity:     1
          Use of symmetry is: on ; symmetry adaption is: on 
          Maximum number of iterations:  30
          AO basis - number of functions:    38
                     number of shells:    16
          Convergence on energy requested: 1.00D-06
          Convergence on density requested: 1.00D-05
          Convergence on gradient requested: 5.00D-04

              XC Information
              --------------
          PerdewBurkeErnzerhof Exchange Functional  1.000          
            Perdew 1991 LDA Correlation Functional  1.000 local    
           PerdewBurkeErnz. Correlation Functional  1.000 non-local

             Grid Information
             ----------------
          Grid used for XC integration:  medium    
          Radial quadrature: Mura-Knowles        
          Angular quadrature: Lebedev. 
          Tag              B.-S. Rad. Rad. Pts. Rad. Cut. Ang. Pts.
          ---              ---------- --------- --------- ---------
          N                   0.65       49           8.0       434
          Grid pruning is: on 
          Number of quadrature shells:    49
          Spatial weights used:  Erf1

          Convergence Information
          -----------------------
          Convergence aids based upon iterative change in 
          total energy or number of iterations. 
          Levelshifting, if invoked, occurs when the 
          HOMO/LUMO gap drops below (HL_TOL): 1.00D-02
          DIIS, if invoked, will attempt to extrapolate 
          using up to (NFOCK): 10 stored Fock matrices.

                    Damping( 0%)  Levelshifting(0.5)       DIIS
                  --------------- ------------------- ---------------
          dE  on:    start            ASAP                start   
          dE off:    2 iters         30 iters            30 iters 


      Screening Tolerance Information
      -------------------------------
          Density screening/tol_rho: 1.00D-10
          AO Gaussian exp screening on grid/accAOfunc:  14
          CD Gaussian exp screening on grid/accCDfunc:  20
          XC Gaussian exp screening on grid/accXCfunc:  20
          Schwarz screening/accCoul: 1.00D-08


 Loading old vectors from job with title :

N2 dft optimize


      Symmetry analysis of molecular orbitals - initial
      -------------------------------------------------

  Numbering of irreducible representations: 

     1 a1g         2 a1u         3 a2g         4 a2u         5 b1g     
     6 b1u         7 b2g         8 b2u         9 eg         10 eu      

  Orbital symmetries:

     1 a1g         2 a2u         3 a1g         4 a2u         5 eu      
     6 eu          7 a1g         8 eg          9 eg         10 a1g     
    11 a2u        12 eu         13 eu         14 a1g        15 eg      
    16 eg         17 a2u     

   Time after variat. SCF:      0.5
   Time prior to 1st pass:      0.5

 Integral file          = ./N2.aoints.0
 Record size in doubles =  65536        No. of integs per rec  =  43688
 Max. records in memory =      2        Max. records in file   = 184516
 No. of bits per label  =      8        No. of bits per value  =     64


 #quartets = 6.345D+03 #integrals = 5.603D+04 #direct =  0.0% #cached =100.0%


 Grid_pts file          = ./N2.gridpts.0
 Record size in doubles =  12289        No. of grid_pts per rec  =   3070
 Max. records in memory =      9        Max. recs in file   =    984008


           Memory utilization after 1st SCF pass: 
           Heap Space remaining (MW):       32.52            32524411
          Stack Space remaining (MW):       32.77            32767697

   convergence    iter        energy       DeltaE   RMS-Dens  Diis-err    time
 ---------------- ----- ----------------- --------- --------- ---------  ------
 d= 0,ls=0.0,diis     1   -109.4089348646 -1.32D+02  4.43D-03  7.19D-03     0.6
 d= 0,ls=0.0,diis     2   -109.4097208362 -7.86D-04  2.45D-03  2.21D-03     0.7
 d= 0,ls=0.0,diis     3   -109.4099729933 -2.52D-04  5.82D-04  1.43D-04     0.7
 d= 0,ls=0.0,diis     4   -109.4099913372 -1.83D-05  2.10D-05  1.21D-07     0.7
 d= 0,ls=0.0,diis     5   -109.4099913509 -1.38D-08  2.66D-06  4.31D-09     0.7


         Total DFT energy =     -109.409991350950
      One electron energy =     -192.703943677259
           Coulomb energy =       74.029557830407
    Exchange-Corr. energy =      -13.497302803350
 Nuclear repulsion energy =       22.761697299252

 Numeric. integr. density =       14.000000816930

     Total iterative time =      0.2s



                  Occupations of the irreducible representations
                  ----------------------------------------------

                     irrep           alpha         beta
                     --------     --------     --------
                     a1g               3.0          3.0
                     a1u               0.0          0.0
                     a2g               0.0          0.0
                     a2u               2.0          2.0
                     b1g               0.0          0.0
                     b1u               0.0          0.0
                     b2g               0.0          0.0
                     b2u               0.0          0.0
                     eg                0.0          0.0
                     eu                2.0          2.0


                       DFT Final Molecular Orbital Analysis
                       ------------------------------------

 Vector    1  Occ=2.000000D+00  E=-1.412406D+01  Symmetry=a1g
              MO Center= -2.9D-19,  1.9D-19, -1.2D-12, r^2= 3.4D-01
   Bfn.  Coefficient  Atom+Function         Bfn.  Coefficient  Atom+Function  
  ----- ------------  ---------------      ----- ------------  ---------------
     1      0.701693  1 N  s                 20      0.701693  2 N  s          

 Vector    2  Occ=2.000000D+00  E=-1.412321D+01  Symmetry=a2u
              MO Center= -1.0D-31,  4.2D-32,  1.2D-12, r^2= 3.4D-01
   Bfn.  Coefficient  Atom+Function         Bfn.  Coefficient  Atom+Function  
  ----- ------------  ---------------      ----- ------------  ---------------
     1      0.701737  1 N  s                 20     -0.701737  2 N  s          

 Vector    3  Occ=2.000000D+00  E=-1.022656D+00  Symmetry=a1g
              MO Center=  9.9D-35, -6.6D-35, -6.9D-17, r^2= 4.6D-01
   Bfn.  Coefficient  Atom+Function         Bfn.  Coefficient  Atom+Function  
  ----- ------------  ---------------      ----- ------------  ---------------
     2      0.334985  1 N  s                 21      0.334985  2 N  s          
     5      0.223989  1 N  pz                24     -0.223989  2 N  pz         
     6      0.220365  1 N  s                 25      0.220365  2 N  s          
     1     -0.159050  1 N  s                 20     -0.159050  2 N  s          

 Vector    4  Occ=2.000000D+00  E=-5.080383D-01  Symmetry=a2u
              MO Center= -1.3D-35,  5.4D-36, -1.1D-16, r^2= 1.3D+00
   Bfn.  Coefficient  Atom+Function         Bfn.  Coefficient  Atom+Function  
  ----- ------------  ---------------      ----- ------------  ---------------
     6      0.568685  1 N  s                 25     -0.568685  2 N  s          
     2      0.342218  1 N  s                 21     -0.342218  2 N  s          
    10     -0.313173  1 N  s                 29      0.313173  2 N  s          
     5     -0.200186  1 N  pz                24     -0.200186  2 N  pz         
     1     -0.154189  1 N  s                 20      0.154189  2 N  s          

 Vector    5  Occ=2.000000D+00  E=-4.171552D-01  Symmetry=eu
              MO Center=  7.6D-17, -3.3D-17,  9.0D-17, r^2= 9.3D-01
   Bfn.  Coefficient  Atom+Function         Bfn.  Coefficient  Atom+Function  
  ----- ------------  ---------------      ----- ------------  ---------------
     3      0.346590  1 N  px                22      0.346590  2 N  px         
     4     -0.300230  1 N  py                23     -0.300230  2 N  py         
     7      0.170830  1 N  px                26      0.170830  2 N  px         

 Vector    6  Occ=2.000000D+00  E=-4.171552D-01  Symmetry=eu
              MO Center=  3.1D-17,  1.9D-17,  6.9D-16, r^2= 9.3D-01
   Bfn.  Coefficient  Atom+Function         Bfn.  Coefficient  Atom+Function  
  ----- ------------  ---------------      ----- ------------  ---------------
     4      0.346590  1 N  py                23      0.346590  2 N  py         
     3      0.300230  1 N  px                22      0.300230  2 N  px         
     8      0.170830  1 N  py                27      0.170830  2 N  py         

 Vector    7  Occ=2.000000D+00  E=-3.760344D-01  Symmetry=a1g
              MO Center= -2.9D-17,  5.3D-17, -1.0D-15, r^2= 1.4D+00
   Bfn.  Coefficient  Atom+Function         Bfn.  Coefficient  Atom+Function  
  ----- ------------  ---------------      ----- ------------  ---------------
     5      0.458636  1 N  pz                24     -0.458636  2 N  pz         
     6     -0.263153  1 N  s                 25     -0.263153  2 N  s          
     9      0.181805  1 N  pz                28     -0.181805  2 N  pz         

 Vector    8  Occ=0.000000D+00  E=-9.014652D-02  Symmetry=eg
              MO Center= -1.2D-18, -1.9D-19, -4.4D-16, r^2= 1.4D+00
   Bfn.  Coefficient  Atom+Function         Bfn.  Coefficient  Atom+Function  
  ----- ------------  ---------------      ----- ------------  ---------------
     4      0.474696  1 N  py                23     -0.474696  2 N  py         
     8      0.404415  1 N  py                27     -0.404415  2 N  py         
    12      0.253785  1 N  py                31     -0.253785  2 N  py         
     3      0.198690  1 N  px                22     -0.198690  2 N  px         
     7      0.169273  1 N  px                26     -0.169273  2 N  px         

 Vector    9  Occ=0.000000D+00  E=-9.014652D-02  Symmetry=eg
              MO Center= -3.3D-18,  2.6D-17, -1.7D-16, r^2= 1.4D+00
   Bfn.  Coefficient  Atom+Function         Bfn.  Coefficient  Atom+Function  
  ----- ------------  ---------------      ----- ------------  ---------------
     3      0.474696  1 N  px                22     -0.474696  2 N  px         
     7      0.404415  1 N  px                26     -0.404415  2 N  px         
    11      0.253785  1 N  px                30     -0.253785  2 N  px         
     4     -0.198690  1 N  py                23      0.198690  2 N  py         
     8     -0.169273  1 N  py                27      0.169273  2 N  py         

 Vector   10  Occ=0.000000D+00  E= 5.335998D-02  Symmetry=a1g
              MO Center= -1.0D-16,  6.4D-17,  7.3D-17, r^2= 6.1D+00
   Bfn.  Coefficient  Atom+Function         Bfn.  Coefficient  Atom+Function  
  ----- ------------  ---------------      ----- ------------  ---------------
    10      0.886236  1 N  s                 29      0.886236  2 N  s          
     6     -0.665955  1 N  s                 25     -0.665955  2 N  s          
    13     -0.252224  1 N  pz                32      0.252224  2 N  pz         
     9      0.177103  1 N  pz                28     -0.177103  2 N  pz         

 Vector   11  Occ=0.000000D+00  E= 7.206045D-02  Symmetry=a2u
              MO Center= -5.6D-18,  4.8D-18,  0.0D+00, r^2= 9.0D+00
   Bfn.  Coefficient  Atom+Function         Bfn.  Coefficient  Atom+Function  
  ----- ------------  ---------------      ----- ------------  ---------------
    10      9.518647  1 N  s                 29     -9.518647  2 N  s          
    13      3.383032  1 N  pz                32      3.383032  2 N  pz         
     9     -0.159476  1 N  pz                28     -0.159476  2 N  pz         

 Vector   12  Occ=0.000000D+00  E= 8.466666D-02  Symmetry=eu
              MO Center=  2.8D-23, -6.2D-23, -1.4D-17, r^2= 6.6D+00
   Bfn.  Coefficient  Atom+Function         Bfn.  Coefficient  Atom+Function  
  ----- ------------  ---------------      ----- ------------  ---------------
    12      0.561310  1 N  py                31      0.561310  2 N  py         
    11     -0.259440  1 N  px                30     -0.259440  2 N  px         
     8     -0.190682  1 N  py                27     -0.190682  2 N  py         

 Vector   13  Occ=0.000000D+00  E= 8.466666D-02  Symmetry=eu
              MO Center= -1.4D-17, -5.0D-18, -5.1D-15, r^2= 6.6D+00
   Bfn.  Coefficient  Atom+Function         Bfn.  Coefficient  Atom+Function  
  ----- ------------  ---------------      ----- ------------  ---------------
    11      0.561310  1 N  px                30      0.561310  2 N  px         
    12      0.259440  1 N  py                31      0.259440  2 N  py         
     7     -0.190682  1 N  px                26     -0.190682  2 N  px         

 Vector   14  Occ=0.000000D+00  E= 1.326128D-01  Symmetry=a1g
              MO Center= -1.3D-16,  9.0D-17,  2.2D-14, r^2= 7.6D+00
   Bfn.  Coefficient  Atom+Function         Bfn.  Coefficient  Atom+Function  
  ----- ------------  ---------------      ----- ------------  ---------------
    13      1.493480  1 N  pz                32     -1.493480  2 N  pz         
     6     -0.387665  1 N  s                 25     -0.387665  2 N  s          

 Vector   15  Occ=0.000000D+00  E= 1.609981D-01  Symmetry=eg
              MO Center= -3.1D-18,  3.6D-18,  7.5D-15, r^2= 8.3D+00
   Bfn.  Coefficient  Atom+Function         Bfn.  Coefficient  Atom+Function  
  ----- ------------  ---------------      ----- ------------  ---------------
    11      2.098051  1 N  px                30     -2.098051  2 N  px         
     7     -0.356295  1 N  px                26      0.356295  2 N  px         
     3     -0.205180  1 N  px                22      0.205180  2 N  px         

 Vector   16  Occ=0.000000D+00  E= 1.609981D-01  Symmetry=eg
              MO Center= -7.1D-19,  2.4D-19, -8.9D-16, r^2= 8.3D+00
   Bfn.  Coefficient  Atom+Function         Bfn.  Coefficient  Atom+Function  
  ----- ------------  ---------------      ----- ------------  ---------------
    12      2.098051  1 N  py                31     -2.098051  2 N  py         
     8     -0.356295  1 N  py                27      0.356295  2 N  py         
     4     -0.205180  1 N  py                23      0.205180  2 N  py         

 Vector   17  Occ=0.000000D+00  E= 2.512577D-01  Symmetry=a2u
              MO Center=  1.2D-18, -3.7D-18, -8.2D-14, r^2= 8.8D+00
   Bfn.  Coefficient  Atom+Function         Bfn.  Coefficient  Atom+Function  
  ----- ------------  ---------------      ----- ------------  ---------------
    10     35.368533  1 N  s                 29    -35.368533  2 N  s          
    13      9.776218  1 N  pz                32      9.776218  2 N  pz         
     6     -0.652706  1 N  s                 25      0.652706  2 N  s          
     9      0.347405  1 N  pz                28      0.347405  2 N  pz         

 Vector   18  Occ=0.000000D+00  E= 4.434359D-01  Symmetry=a2u
              MO Center=  1.4D-16, -3.9D-17,  4.9D-15, r^2= 2.8D+00
   Bfn.  Coefficient  Atom+Function         Bfn.  Coefficient  Atom+Function  
  ----- ------------  ---------------      ----- ------------  ---------------
    10      4.561688  1 N  s                 29     -4.561688  2 N  s          
     6     -3.553895  1 N  s                 25      3.553895  2 N  s          
     9     -2.449913  1 N  pz                28     -2.449913  2 N  pz         
    13      1.630150  1 N  pz                32      1.630150  2 N  pz         
     5     -0.398908  1 N  pz                24     -0.398908  2 N  pz         

 Vector   19  Occ=0.000000D+00  E= 7.286765D-01  Symmetry=a1g
              MO Center= -1.7D-16,  2.0D-16, -1.5D-14, r^2= 3.5D+00
   Bfn.  Coefficient  Atom+Function         Bfn.  Coefficient  Atom+Function  
  ----- ------------  ---------------      ----- ------------  ---------------
     9      1.136276  1 N  pz                28     -1.136276  2 N  pz         
    13     -0.907917  1 N  pz                32      0.907917  2 N  pz         
     5     -0.508100  1 N  pz                24      0.508100  2 N  pz         
     2     -0.167731  1 N  s                 21     -0.167731  2 N  s          


 center of mass
 --------------
 x =   0.00000000 y =   0.00000000 z =   0.00000000

 moments of inertia (a.u.)
 ------------------
          32.447118674500           0.000000000000           0.000000000000
           0.000000000000          32.447118674500           0.000000000000
           0.000000000000           0.000000000000           0.000000000000

     Multipole analysis of the density
     ---------------------------------

     L   x y z        total         alpha         beta         nuclear
     -   - - -        -----         -----         ----         -------
     0   0 0 0     -0.000000     -7.000000     -7.000000     14.000000

     1   1 0 0     -0.000000     -0.000000     -0.000000      0.000000
     1   0 1 0     -0.000000     -0.000000     -0.000000      0.000000
     1   0 0 1     -0.000000     -0.000000     -0.000000      0.000000

     2   2 0 0     -7.769449     -3.884725     -3.884725      0.000000
     2   1 1 0      0.000000      0.000000      0.000000      0.000000
     2   1 0 1      0.000000      0.000000      0.000000      0.000000
     2   0 2 0     -7.769449     -3.884725     -3.884725      0.000000
     2   0 1 1      0.000000      0.000000      0.000000      0.000000
     2   0 0 2     -8.912325    -12.566164    -12.566164     16.220003


 Parallel integral file used       2 records with       0 large values

 Line search: 
     step= 1.00 grad=-3.5D-03 hess= 4.1D-03 energy=   -109.409991 mode=bracket 
 new step= 0.43                   predicted energy=   -109.411349

          --------
          Step   1
          --------


                         Geometry "geometry" -> "geometry"
                         ---------------------------------

 Output coordinates in angstroms (scale by  1.889725989 to convert to a.u.)

  No.       Tag          Charge          X              Y              Z
 ---- ---------------- ---------- -------------- -------------- --------------
    1 N                    7.0000     0.00000000     0.00000000    -0.55836935
    2 N                    7.0000     0.00000000     0.00000000     0.55836935

      Atomic Mass 
      ----------- 

      N                 14.003070


 Effective nuclear repulsion energy (a.u.)      23.2191158618

            Nuclear Dipole moment (a.u.) 
            ----------------------------
        X                 Y               Z
 ---------------- ---------------- ----------------
     0.0000000000     0.0000000000     0.0000000000

      Symmetry information
      --------------------

 Group name             D4h       
 Group number             28
 Group order              16
 No. of unique centers     1

      Symmetry unique atoms

     1


                                 NWChem DFT Module
                                 -----------------


                                  N2 dft optimize


  Caching 1-el integrals 

            General Information
            -------------------
          SCF calculation type: DFT
          Wavefunction type:  closed shell.
          No. of atoms     :     2
          No. of electrons :    14
           Alpha electrons :     7
            Beta electrons :     7
          Charge           :     0
          Spin multiplicity:     1
          Use of symmetry is: on ; symmetry adaption is: on 
          Maximum number of iterations:  30
          AO basis - number of functions:    38
                     number of shells:    16
          Convergence on energy requested: 1.00D-06
          Convergence on density requested: 1.00D-05
          Convergence on gradient requested: 5.00D-04

              XC Information
              --------------
          PerdewBurkeErnzerhof Exchange Functional  1.000          
            Perdew 1991 LDA Correlation Functional  1.000 local    
           PerdewBurkeErnz. Correlation Functional  1.000 non-local

             Grid Information
             ----------------
          Grid used for XC integration:  medium    
          Radial quadrature: Mura-Knowles        
          Angular quadrature: Lebedev. 
          Tag              B.-S. Rad. Rad. Pts. Rad. Cut. Ang. Pts.
          ---              ---------- --------- --------- ---------
          N                   0.65       49           8.0       434
          Grid pruning is: on 
          Number of quadrature shells:    49
          Spatial weights used:  Erf1

          Convergence Information
          -----------------------
          Convergence aids based upon iterative change in 
          total energy or number of iterations. 
          Levelshifting, if invoked, occurs when the 
          HOMO/LUMO gap drops below (HL_TOL): 1.00D-02
          DIIS, if invoked, will attempt to extrapolate 
          using up to (NFOCK): 10 stored Fock matrices.

                    Damping( 0%)  Levelshifting(0.5)       DIIS
                  --------------- ------------------- ---------------
          dE  on:    start            ASAP                start   
          dE off:    2 iters         30 iters            30 iters 


      Screening Tolerance Information
      -------------------------------
          Density screening/tol_rho: 1.00D-10
          AO Gaussian exp screening on grid/accAOfunc:  14
          CD Gaussian exp screening on grid/accCDfunc:  20
          XC Gaussian exp screening on grid/accXCfunc:  20
          Schwarz screening/accCoul: 1.00D-08


 Loading old vectors from job with title :

N2 dft optimize


      Symmetry analysis of molecular orbitals - initial
      -------------------------------------------------

  Numbering of irreducible representations: 

     1 a1g         2 a1u         3 a2g         4 a2u         5 b1g     
     6 b1u         7 b2g         8 b2u         9 eg         10 eu      

  Orbital symmetries:

     1 a1g         2 a2u         3 a1g         4 a2u         5 eu      
     6 eu          7 a1g         8 eg          9 eg         10 a1g     
    11 a2u        12 eu         13 eu         14 a1g        15 eg      
    16 eg         17 a2u     

   Time after variat. SCF:      0.8
   Time prior to 1st pass:      0.8

 Integral file          = ./N2.aoints.0
 Record size in doubles =  65536        No. of integs per rec  =  43688
 Max. records in memory =      2        Max. records in file   = 184514
 No. of bits per label  =      8        No. of bits per value  =     64


 #quartets = 6.345D+03 #integrals = 5.603D+04 #direct =  0.0% #cached =100.0%


 Grid_pts file          = ./N2.gridpts.0
 Record size in doubles =  12289        No. of grid_pts per rec  =   3070
 Max. records in memory =      9        Max. recs in file   =    983998


           Memory utilization after 1st SCF pass: 
           Heap Space remaining (MW):       32.52            32524411
          Stack Space remaining (MW):       32.77            32767697

   convergence    iter        energy       DeltaE   RMS-Dens  Diis-err    time
 ---------------- ----- ----------------- --------- --------- ---------  ------
 d= 0,ls=0.0,diis     1   -109.4109672069 -1.33D+02  2.56D-03  2.35D-03     0.9
 d= 0,ls=0.0,diis     2   -109.4112233400 -2.56D-04  1.46D-03  7.01D-04     0.9
 d= 0,ls=0.0,diis     3   -109.4113028858 -7.95D-05  3.52D-04  4.63D-05     0.9
 d= 0,ls=0.0,diis     4   -109.4113087990 -5.91D-06  1.54D-05  5.57D-08     0.9
 d= 0,ls=0.0,diis     5   -109.4113088055 -6.49D-09  1.73D-06  1.62D-09     0.9


         Total DFT energy =     -109.411308805454
      One electron energy =     -193.585115345795
           Coulomb energy =       74.477613219666
    Exchange-Corr. energy =      -13.522922541171
 Nuclear repulsion energy =       23.219115861845

 Numeric. integr. density =       14.000000307802

     Total iterative time =      0.2s



                  Occupations of the irreducible representations
                  ----------------------------------------------

                     irrep           alpha         beta
                     --------     --------     --------
                     a1g               3.0          3.0
                     a1u               0.0          0.0
                     a2g               0.0          0.0
                     a2u               2.0          2.0
                     b1g               0.0          0.0
                     b1u               0.0          0.0
                     b2g               0.0          0.0
                     b2u               0.0          0.0
                     eg                0.0          0.0
                     eu                2.0          2.0


                       DFT Final Molecular Orbital Analysis
                       ------------------------------------

 Vector    1  Occ=2.000000D+00  E=-1.411921D+01  Symmetry=a1g
              MO Center= -3.5D-18, -6.8D-18,  9.2D-13, r^2= 3.3D-01
   Bfn.  Coefficient  Atom+Function         Bfn.  Coefficient  Atom+Function  
  ----- ------------  ---------------      ----- ------------  ---------------
     1      0.701658  1 N  s                 20      0.701658  2 N  s          

 Vector    2  Occ=2.000000D+00  E=-1.411813D+01  Symmetry=a2u
              MO Center= -3.9D-20, -1.1D-19, -9.2D-13, r^2= 3.3D-01
   Bfn.  Coefficient  Atom+Function         Bfn.  Coefficient  Atom+Function  
  ----- ------------  ---------------      ----- ------------  ---------------
     1      0.701743  1 N  s                 20     -0.701743  2 N  s          

 Vector    3  Occ=2.000000D+00  E=-1.035019D+00  Symmetry=a1g
              MO Center=  3.6D-18, -1.8D-18,  8.3D-17, r^2= 4.4D-01
   Bfn.  Coefficient  Atom+Function         Bfn.  Coefficient  Atom+Function  
  ----- ------------  ---------------      ----- ------------  ---------------
     2      0.334560  1 N  s                 21      0.334560  2 N  s          
     5      0.228415  1 N  pz                24     -0.228415  2 N  pz         
     6      0.215630  1 N  s                 25      0.215630  2 N  s          
     1     -0.160620  1 N  s                 20     -0.160620  2 N  s          

 Vector    4  Occ=2.000000D+00  E=-5.022429D-01  Symmetry=a2u
              MO Center=  5.8D-34, -2.5D-34, -3.1D-16, r^2= 1.3D+00
   Bfn.  Coefficient  Atom+Function         Bfn.  Coefficient  Atom+Function  
  ----- ------------  ---------------      ----- ------------  ---------------
     6      0.573045  1 N  s                 25     -0.573045  2 N  s          
     2      0.338445  1 N  s                 21     -0.338445  2 N  s          
    10     -0.323521  1 N  s                 29      0.323521  2 N  s          
     5     -0.205994  1 N  pz                24     -0.205994  2 N  pz         
     1     -0.153328  1 N  s                 20      0.153328  2 N  s          

 Vector    5  Occ=2.000000D+00  E=-4.233338D-01  Symmetry=eu
              MO Center=  2.3D-16,  3.3D-16,  0.0D+00, r^2= 9.1D-01
   Bfn.  Coefficient  Atom+Function         Bfn.  Coefficient  Atom+Function  
  ----- ------------  ---------------      ----- ------------  ---------------
     4      0.447172  1 N  py                23      0.447172  2 N  py         
     8      0.216515  1 N  py                27      0.216515  2 N  py         

 Vector    6  Occ=2.000000D+00  E=-4.233338D-01  Symmetry=eu
              MO Center=  1.1D-18, -4.2D-18,  2.8D-17, r^2= 9.1D-01
   Bfn.  Coefficient  Atom+Function         Bfn.  Coefficient  Atom+Function  
  ----- ------------  ---------------      ----- ------------  ---------------
     3      0.447172  1 N  px                22      0.447172  2 N  px         
     7      0.216515  1 N  px                26      0.216515  2 N  px         

 Vector    7  Occ=2.000000D+00  E=-3.765437D-01  Symmetry=a1g
              MO Center=  1.7D-19,  6.6D-19, -2.8D-17, r^2= 1.4D+00
   Bfn.  Coefficient  Atom+Function         Bfn.  Coefficient  Atom+Function  
  ----- ------------  ---------------      ----- ------------  ---------------
     5      0.457964  1 N  pz                24     -0.457964  2 N  pz         
     6     -0.265800  1 N  s                 25     -0.265800  2 N  s          
     9      0.178653  1 N  pz                28     -0.178653  2 N  pz         

 Vector    8  Occ=0.000000D+00  E=-8.077976D-02  Symmetry=eg
              MO Center= -2.8D-25, -2.1D-25, -2.8D-17, r^2= 1.5D+00
   Bfn.  Coefficient  Atom+Function         Bfn.  Coefficient  Atom+Function  
  ----- ------------  ---------------      ----- ------------  ---------------
     3      0.411766  1 N  px                22     -0.411766  2 N  px         
     7      0.359253  1 N  px                26     -0.359253  2 N  px         
     4      0.305081  1 N  py                23     -0.305081  2 N  py         
     8      0.266174  1 N  py                27     -0.266174  2 N  py         
    11      0.240455  1 N  px                30     -0.240455  2 N  px         

 Vector    9  Occ=0.000000D+00  E=-8.077976D-02  Symmetry=eg
              MO Center= -3.2D-18,  2.8D-18,  2.5D-16, r^2= 1.5D+00
   Bfn.  Coefficient  Atom+Function         Bfn.  Coefficient  Atom+Function  
  ----- ------------  ---------------      ----- ------------  ---------------
     4      0.411766  1 N  py                23     -0.411766  2 N  py         
     8      0.359253  1 N  py                27     -0.359253  2 N  py         
     3     -0.305081  1 N  px                22      0.305081  2 N  px         
     7     -0.266174  1 N  px                26      0.266174  2 N  px         
    12      0.240455  1 N  py                31     -0.240455  2 N  py         

 Vector   10  Occ=0.000000D+00  E= 5.398882D-02  Symmetry=a1g
              MO Center= -2.5D-17, -1.2D-16,  1.5D-16, r^2= 6.1D+00
   Bfn.  Coefficient  Atom+Function         Bfn.  Coefficient  Atom+Function  
  ----- ------------  ---------------      ----- ------------  ---------------
    10      0.884997  1 N  s                 29      0.884997  2 N  s          
     6     -0.663686  1 N  s                 25     -0.663686  2 N  s          
    13     -0.263162  1 N  pz                32      0.263162  2 N  pz         
     9      0.181425  1 N  pz                28     -0.181425  2 N  pz         

 Vector   11  Occ=0.000000D+00  E= 7.275904D-02  Symmetry=a2u
              MO Center= -5.4D-18,  3.1D-18, -6.2D-14, r^2= 9.0D+00
   Bfn.  Coefficient  Atom+Function         Bfn.  Coefficient  Atom+Function  
  ----- ------------  ---------------      ----- ------------  ---------------
    10     10.231705  1 N  s                 29    -10.231705  2 N  s          
    13      3.522165  1 N  pz                32      3.522165  2 N  pz         
     9     -0.175010  1 N  pz                28     -0.175010  2 N  pz         

 Vector   12  Occ=0.000000D+00  E= 8.420690D-02  Symmetry=eu
              MO Center= -1.1D-24,  3.5D-24,  2.8D-17, r^2= 6.6D+00
   Bfn.  Coefficient  Atom+Function         Bfn.  Coefficient  Atom+Function  
  ----- ------------  ---------------      ----- ------------  ---------------
    12      0.589370  1 N  py                31      0.589370  2 N  py         
     8     -0.196899  1 N  py                27     -0.196899  2 N  py         
    11     -0.180156  1 N  px                30     -0.180156  2 N  px         

 Vector   13  Occ=0.000000D+00  E= 8.420690D-02  Symmetry=eu
              MO Center=  1.0D-18,  8.6D-19, -2.6D-15, r^2= 6.6D+00
   Bfn.  Coefficient  Atom+Function         Bfn.  Coefficient  Atom+Function  
  ----- ------------  ---------------      ----- ------------  ---------------
    11      0.589370  1 N  px                30      0.589370  2 N  px         
     7     -0.196899  1 N  px                26     -0.196899  2 N  px         
    12      0.180156  1 N  py                31      0.180156  2 N  py         

 Vector   14  Occ=0.000000D+00  E= 1.328897D-01  Symmetry=a1g
              MO Center= -2.9D-17, -1.8D-16,  7.2D-14, r^2= 7.6D+00
   Bfn.  Coefficient  Atom+Function         Bfn.  Coefficient  Atom+Function  
  ----- ------------  ---------------      ----- ------------  ---------------
    13      1.516868  1 N  pz                32     -1.516868  2 N  pz         
     6     -0.393205  1 N  s                 25     -0.393205  2 N  s          

 Vector   15  Occ=0.000000D+00  E= 1.623464D-01  Symmetry=eg
              MO Center= -9.9D-19,  2.5D-17,  1.8D-15, r^2= 8.3D+00
   Bfn.  Coefficient  Atom+Function         Bfn.  Coefficient  Atom+Function  
  ----- ------------  ---------------      ----- ------------  ---------------
    12      2.132927  1 N  py                31     -2.132927  2 N  py         
     8     -0.368514  1 N  py                27      0.368514  2 N  py         
     4     -0.210244  1 N  py                23      0.210244  2 N  py         

 Vector   16  Occ=0.000000D+00  E= 1.623464D-01  Symmetry=eg
              MO Center= -3.2D-17, -1.2D-17,  2.2D-15, r^2= 8.3D+00
   Bfn.  Coefficient  Atom+Function         Bfn.  Coefficient  Atom+Function  
  ----- ------------  ---------------      ----- ------------  ---------------
    11      2.132927  1 N  px                30     -2.132927  2 N  px         
     7     -0.368514  1 N  px                26      0.368514  2 N  px         
     3     -0.210244  1 N  px                22      0.210244  2 N  px         

 Vector   17  Occ=0.000000D+00  E= 2.519363D-01  Symmetry=a2u
              MO Center= -3.0D-18,  2.2D-18,  9.4D-14, r^2= 8.8D+00
   Bfn.  Coefficient  Atom+Function         Bfn.  Coefficient  Atom+Function  
  ----- ------------  ---------------      ----- ------------  ---------------
    10     37.518379  1 N  s                 29    -37.518379  2 N  s          
    13     10.163591  1 N  pz                32     10.163591  2 N  pz         
     6     -0.636081  1 N  s                 25      0.636081  2 N  s          
     9      0.354559  1 N  pz                28      0.354559  2 N  pz         

 Vector   18  Occ=0.000000D+00  E= 4.664582D-01  Symmetry=a2u
              MO Center=  4.2D-18, -3.1D-18, -6.9D-15, r^2= 2.9D+00
   Bfn.  Coefficient  Atom+Function         Bfn.  Coefficient  Atom+Function  
  ----- ------------  ---------------      ----- ------------  ---------------
    10      4.464009  1 N  s                 29     -4.464009  2 N  s          
     6     -3.981183  1 N  s                 25      3.981183  2 N  s          
     9     -2.679792  1 N  pz                28     -2.679792  2 N  pz         
    13      1.591983  1 N  pz                32      1.591983  2 N  pz         
     5     -0.361772  1 N  pz                24     -0.361772  2 N  pz         

 Vector   19  Occ=0.000000D+00  E= 7.214825D-01  Symmetry=a1g
              MO Center= -1.8D-18, -2.1D-18, -1.1D-16, r^2= 3.5D+00
   Bfn.  Coefficient  Atom+Function         Bfn.  Coefficient  Atom+Function  
  ----- ------------  ---------------      ----- ------------  ---------------
     9      1.150008  1 N  pz                28     -1.150008  2 N  pz         
    13     -0.927100  1 N  pz                32      0.927100  2 N  pz         
     5     -0.497455  1 N  pz                24      0.497455  2 N  pz         
     2     -0.180569  1 N  s                 21     -0.180569  2 N  s          


 center of mass
 --------------
 x =   0.00000000 y =   0.00000000 z =   0.00000000

 moments of inertia (a.u.)
 ------------------
          31.181289175886           0.000000000000           0.000000000000
           0.000000000000          31.181289175886           0.000000000000
           0.000000000000           0.000000000000           0.000000000000

     Multipole analysis of the density
     ---------------------------------

     L   x y z        total         alpha         beta         nuclear
     -   - - -        -----         -----         ----         -------
     0   0 0 0     -0.000000     -7.000000     -7.000000     14.000000

     1   1 0 0     -0.000000     -0.000000     -0.000000      0.000000
     1   0 1 0     -0.000000     -0.000000     -0.000000      0.000000
     1   0 0 1     -0.000000     -0.000000     -0.000000      0.000000

     2   2 0 0     -7.720710     -3.860355     -3.860355      0.000000
     2   1 1 0     -0.000000     -0.000000     -0.000000      0.000000
     2   1 0 1      0.000000      0.000000      0.000000      0.000000
     2   0 2 0     -7.720710     -3.860355     -3.860355      0.000000
     2   0 1 1      0.000000      0.000000      0.000000      0.000000
     2   0 0 2     -8.901436    -12.244331    -12.244331     15.587227


 Parallel integral file used       2 records with       0 large values



                            NWChem DFT Gradient Module
                            --------------------------


                                  N2 dft optimize



  charge          =   0.00
  wavefunction    = closed shell

  Using symmetry


                         DFT ENERGY GRADIENTS

    atom               coordinates                        gradient
                 x          y          z           x          y          z
   1 N       0.000000   0.000000  -1.055165    0.000000   0.000000  -0.001583
   2 N       0.000000   0.000000   1.055165    0.000000   0.000000   0.001583

                 ----------------------------------------
                 |  Time  |  1-e(secs)   |  2-e(secs)   |
                 ----------------------------------------
                 |  CPU   |       0.00   |       0.11   |
                 ----------------------------------------
                 |  WALL  |       0.00   |       0.11   |
                 ----------------------------------------

  Step       Energy      Delta E   Gmax     Grms     Xrms     Xmax   Walltime
  ---- ---------------- -------- -------- -------- -------- -------- --------
@    1    -109.41130881 -7.1D-04  0.00158  0.00158  0.00913  0.01582      1.2
                                                                    



                                Z-matrix (autoz)
                                -------- 

 Units are Angstrom for bonds and degrees for angles

      Type          Name      I     J     K     L     M      Value     Gradient
      ----------- --------  ----- ----- ----- ----- ----- ---------- ----------
    1 Stretch                  1     2                       1.11674    0.00158


                                 NWChem DFT Module
                                 -----------------


                                  N2 dft optimize


  Caching 1-el integrals 

            General Information
            -------------------
          SCF calculation type: DFT
          Wavefunction type:  closed shell.
          No. of atoms     :     2
          No. of electrons :    14
           Alpha electrons :     7
            Beta electrons :     7
          Charge           :     0
          Spin multiplicity:     1
          Use of symmetry is: on ; symmetry adaption is: on 
          Maximum number of iterations:  30
          AO basis - number of functions:    38
                     number of shells:    16
          Convergence on energy requested: 1.00D-06
          Convergence on density requested: 1.00D-05
          Convergence on gradient requested: 5.00D-04

              XC Information
              --------------
          PerdewBurkeErnzerhof Exchange Functional  1.000          
            Perdew 1991 LDA Correlation Functional  1.000 local    
           PerdewBurkeErnz. Correlation Functional  1.000 non-local

             Grid Information
             ----------------
          Grid used for XC integration:  medium    
          Radial quadrature: Mura-Knowles        
          Angular quadrature: Lebedev. 
          Tag              B.-S. Rad. Rad. Pts. Rad. Cut. Ang. Pts.
          ---              ---------- --------- --------- ---------
          N                   0.65       49           8.0       434
          Grid pruning is: on 
          Number of quadrature shells:    49
          Spatial weights used:  Erf1

          Convergence Information
          -----------------------
          Convergence aids based upon iterative change in 
          total energy or number of iterations. 
          Levelshifting, if invoked, occurs when the 
          HOMO/LUMO gap drops below (HL_TOL): 1.00D-02
          DIIS, if invoked, will attempt to extrapolate 
          using up to (NFOCK): 10 stored Fock matrices.

                    Damping( 0%)  Levelshifting(0.5)       DIIS
                  --------------- ------------------- ---------------
          dE  on:    start            ASAP                start   
          dE off:    2 iters         30 iters            30 iters 


      Screening Tolerance Information
      -------------------------------
          Density screening/tol_rho: 1.00D-10
          AO Gaussian exp screening on grid/accAOfunc:  14
          CD Gaussian exp screening on grid/accCDfunc:  20
          XC Gaussian exp screening on grid/accXCfunc:  20
          Schwarz screening/accCoul: 1.00D-08


 Loading old vectors from job with title :

N2 dft optimize


      Symmetry analysis of molecular orbitals - initial
      -------------------------------------------------

  Numbering of irreducible representations: 

     1 a1g         2 a1u         3 a2g         4 a2u         5 b1g     
     6 b1u         7 b2g         8 b2u         9 eg         10 eu      

  Orbital symmetries:

     1 a1g         2 a2u         3 a1g         4 a2u         5 eu      
     6 eu          7 a1g         8 eg          9 eg         10 a1g     
    11 a2u        12 eu         13 eu         14 a1g        15 eg      
    16 eg         17 a2u     

   Time after variat. SCF:      1.1
   Time prior to 1st pass:      1.1

 Integral file          = ./N2.aoints.0
 Record size in doubles =  65536        No. of integs per rec  =  43688
 Max. records in memory =      2        Max. records in file   = 184514
 No. of bits per label  =      8        No. of bits per value  =     64


 #quartets = 6.345D+03 #integrals = 5.603D+04 #direct =  0.0% #cached =100.0%


 Grid_pts file          = ./N2.gridpts.0
 Record size in doubles =  12289        No. of grid_pts per rec  =   3070
 Max. records in memory =      9        Max. recs in file   =    983998


           Memory utilization after 1st SCF pass: 
           Heap Space remaining (MW):       32.52            32524411
          Stack Space remaining (MW):       32.77            32767697

   convergence    iter        energy       DeltaE   RMS-Dens  Diis-err    time
 ---------------- ----- ----------------- --------- --------- ---------  ------
 d= 0,ls=0.0,diis     1   -109.4113094551 -1.33D+02  6.24D-05  1.38D-06     1.2
 d= 0,ls=0.0,diis     2   -109.4113096031 -1.48D-07  3.55D-05  4.22D-07     1.3
 d= 0,ls=0.0,diis     3   -109.4113096512 -4.80D-08  8.48D-06  2.66D-08     1.3


         Total DFT energy =     -109.411309651171
      One electron energy =     -193.606074786609
           Coulomb energy =       74.487970648700
    Exchange-Corr. energy =      -13.523487985099
 Nuclear repulsion energy =       23.230282471837

 Numeric. integr. density =       14.000000296382

     Total iterative time =      0.2s



                  Occupations of the irreducible representations
                  ----------------------------------------------

                     irrep           alpha         beta
                     --------     --------     --------
                     a1g               3.0          3.0
                     a1u               0.0          0.0
                     a2g               0.0          0.0
                     a2u               2.0          2.0
                     b1g               0.0          0.0
                     b1u               0.0          0.0
                     b2g               0.0          0.0
                     b2u               0.0          0.0
                     eg                0.0          0.0
                     eu                2.0          2.0


                       DFT Final Molecular Orbital Analysis
                       ------------------------------------

 Vector    1  Occ=2.000000D+00  E=-1.411909D+01  Symmetry=a1g
              MO Center= -2.0D-18, -2.9D-18,  9.1D-13, r^2= 3.3D-01
   Bfn.  Coefficient  Atom+Function         Bfn.  Coefficient  Atom+Function  
  ----- ------------  ---------------      ----- ------------  ---------------
     1      0.701657  1 N  s                 20      0.701657  2 N  s          

 Vector    2  Occ=2.000000D+00  E=-1.411801D+01  Symmetry=a2u
              MO Center=  3.6D-31, -3.7D-33, -9.1D-13, r^2= 3.3D-01
   Bfn.  Coefficient  Atom+Function         Bfn.  Coefficient  Atom+Function  
  ----- ------------  ---------------      ----- ------------  ---------------
     1      0.701743  1 N  s                 20     -0.701743  2 N  s          

 Vector    3  Occ=2.000000D+00  E=-1.035316D+00  Symmetry=a1g
              MO Center=  5.3D-34,  7.8D-34, -5.6D-17, r^2= 4.4D-01
   Bfn.  Coefficient  Atom+Function         Bfn.  Coefficient  Atom+Function  
  ----- ------------  ---------------      ----- ------------  ---------------
     2      0.334548  1 N  s                 21      0.334548  2 N  s          
     5      0.228520  1 N  pz                24     -0.228520  2 N  pz         
     6      0.215518  1 N  s                 25      0.215518  2 N  s          
     1     -0.160660  1 N  s                 20     -0.160660  2 N  s          

 Vector    4  Occ=2.000000D+00  E=-5.021047D-01  Symmetry=a2u
              MO Center=  4.9D-18,  1.5D-17, -1.7D-15, r^2= 1.3D+00
   Bfn.  Coefficient  Atom+Function         Bfn.  Coefficient  Atom+Function  
  ----- ------------  ---------------      ----- ------------  ---------------
     6      0.573152  1 N  s                 25     -0.573152  2 N  s          
     2      0.338353  1 N  s                 21     -0.338353  2 N  s          
    10     -0.323775  1 N  s                 29      0.323775  2 N  s          
     5     -0.206132  1 N  pz                24     -0.206132  2 N  pz         
     1     -0.153308  1 N  s                 20      0.153308  2 N  s          

 Vector    5  Occ=2.000000D+00  E=-4.234858D-01  Symmetry=eu
              MO Center= -8.0D-17,  2.1D-16,  5.6D-17, r^2= 9.1D-01
   Bfn.  Coefficient  Atom+Function         Bfn.  Coefficient  Atom+Function  
  ----- ------------  ---------------      ----- ------------  ---------------
     3      0.422425  1 N  px                22      0.422425  2 N  px         
     7      0.204443  1 N  px                26      0.204443  2 N  px         
     4     -0.180563  1 N  py                23     -0.180563  2 N  py         

 Vector    6  Occ=2.000000D+00  E=-4.234858D-01  Symmetry=eu
              MO Center=  4.9D-18, -2.0D-18, -5.6D-16, r^2= 9.1D-01
   Bfn.  Coefficient  Atom+Function         Bfn.  Coefficient  Atom+Function  
  ----- ------------  ---------------      ----- ------------  ---------------
     4      0.422425  1 N  py                23      0.422425  2 N  py         
     8      0.204443  1 N  py                27      0.204443  2 N  py         
     3      0.180563  1 N  px                22      0.180563  2 N  px         

 Vector    7  Occ=2.000000D+00  E=-3.765571D-01  Symmetry=a1g
              MO Center=  1.2D-16, -6.2D-17,  3.6D-15, r^2= 1.4D+00
   Bfn.  Coefficient  Atom+Function         Bfn.  Coefficient  Atom+Function  
  ----- ------------  ---------------      ----- ------------  ---------------
     5      0.457949  1 N  pz                24     -0.457949  2 N  pz         
     6     -0.265861  1 N  s                 25     -0.265861  2 N  s          
     9      0.178577  1 N  pz                28     -0.178577  2 N  pz         

 Vector    8  Occ=0.000000D+00  E=-8.055216D-02  Symmetry=eg
              MO Center=  8.8D-23,  2.0D-22,  4.4D-16, r^2= 1.5D+00
   Bfn.  Coefficient  Atom+Function         Bfn.  Coefficient  Atom+Function  
  ----- ------------  ---------------      ----- ------------  ---------------
     4      0.468927  1 N  py                23     -0.468927  2 N  py         
     8      0.409362  1 N  py                27     -0.409362  2 N  py         
    12      0.274430  1 N  py                31     -0.274430  2 N  py         
     3      0.206582  1 N  px                22     -0.206582  2 N  px         
     7      0.180341  1 N  px                26     -0.180341  2 N  px         

 Vector    9  Occ=0.000000D+00  E=-8.055216D-02  Symmetry=eg
              MO Center=  8.1D-22, -3.6D-22, -1.1D-16, r^2= 1.5D+00
   Bfn.  Coefficient  Atom+Function         Bfn.  Coefficient  Atom+Function  
  ----- ------------  ---------------      ----- ------------  ---------------
     3      0.468927  1 N  px                22     -0.468927  2 N  px         
     7      0.409362  1 N  px                26     -0.409362  2 N  px         
    11      0.274430  1 N  px                30     -0.274430  2 N  px         
     4     -0.206582  1 N  py                23      0.206582  2 N  py         
     8     -0.180341  1 N  py                27      0.180341  2 N  py         

 Vector   10  Occ=0.000000D+00  E= 5.400349D-02  Symmetry=a1g
              MO Center= -3.0D-17,  2.6D-17,  1.8D-14, r^2= 6.1D+00
   Bfn.  Coefficient  Atom+Function         Bfn.  Coefficient  Atom+Function  
  ----- ------------  ---------------      ----- ------------  ---------------
    10      0.884968  1 N  s                 29      0.884968  2 N  s          
     6     -0.663629  1 N  s                 25     -0.663629  2 N  s          
    13     -0.263437  1 N  pz                32      0.263437  2 N  pz         
     9      0.181527  1 N  pz                28     -0.181527  2 N  pz         

 Vector   11  Occ=0.000000D+00  E= 7.277467D-02  Symmetry=a2u
              MO Center=  1.7D-31,  3.0D-31, -3.4D-14, r^2= 9.0D+00
   Bfn.  Coefficient  Atom+Function         Bfn.  Coefficient  Atom+Function  
  ----- ------------  ---------------      ----- ------------  ---------------
    10     10.249479  1 N  s                 29    -10.249479  2 N  s          
    13      3.525587  1 N  pz                32      3.525587  2 N  pz         
     9     -0.175375  1 N  pz                28     -0.175375  2 N  pz         

 Vector   12  Occ=0.000000D+00  E= 8.419535D-02  Symmetry=eu
              MO Center=  2.9D-20,  8.9D-21,  2.8D-17, r^2= 6.6D+00
   Bfn.  Coefficient  Atom+Function         Bfn.  Coefficient  Atom+Function  
[...]
          dE  on:    start            ASAP                start   
          dE off:    2 iters         30 iters            30 iters 


      Screening Tolerance Information
      -------------------------------
          Density screening/tol_rho: 1.00D-11
          AO Gaussian exp screening on grid/accAOfunc:  16
          CD Gaussian exp screening on grid/accCDfunc:  20
          XC Gaussian exp screening on grid/accXCfunc:  20
          Schwarz screening/accCoul: 1.00D-08


 !! nbf/nmo/basis-name mismatch 
           nbf=  46 nbf_file=  38
           nmo=  46nmo_file=  38
           basis="ao basis" basis_file="ao basis"

  Either an incorrect movecs file was specified, or linear dependence has changed,
  or the basis name was changed. 

 Loading old vectors from job with title :

N2 dft freq


  Load of old vectors failed.   Forcing atomic density guess


      Superposition of Atomic Density Guess
      -------------------------------------

 Sum of atomic energies:        -108.61593604

      Non-variational initial energy
      ------------------------------

 Total energy =    -109.055278
 1-e energy   =    -193.132698
 2-e energy   =      60.847137
 HOMO         =      -0.427960
 LUMO         =       0.005928


      Symmetry analysis of molecular orbitals - initial
      -------------------------------------------------


 !! scf_movecs_sym_adapt:    4 vectors were symmetry contaminated

  Symmetry fudging

 !! scf_movecs_sym_adapt:    4 vectors were symmetry contaminated

  Numbering of irreducible representations: 

     1 a1g         2 a1u         3 a2g         4 a2u         5 b1g     
     6 b1u         7 b2g         8 b2u         9 eg         10 eu      

  Orbital symmetries:

     1 a1g         2 a2u         3 a1g         4 a2u         5 eu      
     6 eu          7 a1g         8 eg          9 eg         10 a2u     
    11 a1g        12 eu         13 eu         14 a1g        15 eg      
    16 eg         17 a2u     

   Time after variat. SCF:     11.4
   Time prior to 1st pass:     11.4

 Integral file          = ./N2.aoints.0
 Record size in doubles =  65536        No. of integs per rec  =  43688
 Max. records in memory =      3        Max. records in file   = 184937
 No. of bits per label  =      8        No. of bits per value  =     64


 #quartets = 1.511D+04 #integrals = 1.160D+05 #direct =  0.0% #cached =100.0%


 Grid_pts file          = ./N2.gridpts.0
 Record size in doubles =  12289        No. of grid_pts per rec  =   3070
 Max. records in memory =     16        Max. recs in file   =    986258


           Memory utilization after 1st SCF pass: 
           Heap Space remaining (MW):       32.37            32372708
          Stack Space remaining (MW):       32.77            32767653

   convergence    iter        energy       DeltaE   RMS-Dens  Diis-err    time
 ---------------- ----- ----------------- --------- --------- ---------  ------
 d= 0,ls=0.0,diis     1   -109.5364246023 -1.33D+02  5.92D-03  4.36D-01    11.7
 d= 0,ls=0.0,diis     2   -109.5531650158 -1.67D-02  5.89D-03  6.52D-02    11.8
 d= 0,ls=0.0,diis     3   -109.5589126352 -5.75D-03  1.31D-03  7.33D-03    11.9
 d= 0,ls=0.0,diis     4   -109.5596644542 -7.52D-04  4.99D-05  2.45D-06    12.1
 d= 0,ls=0.0,diis     5   -109.5596647477 -2.93D-07  2.70D-06  3.52D-08    12.2
 d= 0,ls=0.0,diis     6   -109.5596647505 -2.86D-09  4.66D-07  3.33D-10    12.4


         Total DFT energy =     -109.559664750549
      One electron energy =     -193.738324896380
           Coulomb energy =       74.619350105528
    Exchange-Corr. energy =      -13.670972431533
 Nuclear repulsion energy =       23.230282471837

 Numeric. integr. density =       14.000000004534

     Total iterative time =      0.9s



                  Occupations of the irreducible representations
                  ----------------------------------------------

                     irrep           alpha         beta
                     --------     --------     --------
                     a1g               3.0          3.0
                     a1u               0.0          0.0
                     a2g               0.0          0.0
                     a2u               2.0          2.0
                     b1g               0.0          0.0
                     b1u               0.0          0.0
                     b2g               0.0          0.0
                     b2u               0.0          0.0
                     eg                0.0          0.0
                     eu                2.0          2.0


                       DFT Final Molecular Orbital Analysis
                       ------------------------------------

 Vector    1  Occ=2.000000D+00  E=-1.443403D+01  Symmetry=a1g
              MO Center= -3.0D-18,  1.9D-18, -3.0D-12, r^2= 3.3D-01
   Bfn.  Coefficient  Atom+Function         Bfn.  Coefficient  Atom+Function  
  ----- ------------  ---------------      ----- ------------  ---------------
     1      0.394348  1 N  s                 24      0.394348  2 N  s          
     2      0.326973  1 N  s                 25      0.326973  2 N  s          

 Vector    2  Occ=2.000000D+00  E=-1.443248D+01  Symmetry=a2u
              MO Center= -2.2D-23, -3.7D-22,  3.0D-12, r^2= 3.3D-01
   Bfn.  Coefficient  Atom+Function         Bfn.  Coefficient  Atom+Function  
  ----- ------------  ---------------      ----- ------------  ---------------
     1      0.394463  1 N  s                 24     -0.394463  2 N  s          
     2      0.327065  1 N  s                 25     -0.327065  2 N  s          

 Vector    3  Occ=2.000000D+00  E=-1.128607D+00  Symmetry=a1g
              MO Center=  2.2D-18, -8.5D-19,  6.5D-16, r^2= 4.4D-01
   Bfn.  Coefficient  Atom+Function         Bfn.  Coefficient  Atom+Function  
  ----- ------------  ---------------      ----- ------------  ---------------
     6      0.388803  1 N  s                 29      0.388803  2 N  s          
    10      0.173274  1 N  s                 33      0.173274  2 N  s          

 Vector    4  Occ=2.000000D+00  E=-5.662990D-01  Symmetry=a2u
              MO Center= -2.9D-32, -1.4D-32, -7.8D-16, r^2= 1.3D+00
   Bfn.  Coefficient  Atom+Function         Bfn.  Coefficient  Atom+Function  
  ----- ------------  ---------------      ----- ------------  ---------------
    10      0.502031  1 N  s                 33     -0.502031  2 N  s          
     6      0.402780  1 N  s                 29     -0.402780  2 N  s          
    14     -0.178473  1 N  s                 37      0.178473  2 N  s          

 Vector    5  Occ=2.000000D+00  E=-4.704402D-01  Symmetry=eu
              MO Center= -1.2D-17,  4.8D-17, -1.1D-16, r^2= 9.2D-01
   Bfn.  Coefficient  Atom+Function         Bfn.  Coefficient  Atom+Function  
  ----- ------------  ---------------      ----- ------------  ---------------
     8      0.304255  1 N  py                31      0.304255  2 N  py         
    12      0.209896  1 N  py                35      0.209896  2 N  py         
     4      0.202813  1 N  py                27      0.202813  2 N  py         

 Vector    6  Occ=2.000000D+00  E=-4.704402D-01  Symmetry=eu
              MO Center= -3.1D-16, -1.9D-17, -5.6D-17, r^2= 9.2D-01
   Bfn.  Coefficient  Atom+Function         Bfn.  Coefficient  Atom+Function  
  ----- ------------  ---------------      ----- ------------  ---------------
     7      0.304255  1 N  px                30      0.304255  2 N  px         
    11      0.209896  1 N  px                34      0.209896  2 N  px         
     3      0.202813  1 N  px                26      0.202813  2 N  px         

 Vector    7  Occ=2.000000D+00  E=-4.400733D-01  Symmetry=a1g
              MO Center= -1.1D-16, -7.8D-17, -3.9D-16, r^2= 1.4D+00
   Bfn.  Coefficient  Atom+Function         Bfn.  Coefficient  Atom+Function  
  ----- ------------  ---------------      ----- ------------  ---------------
     9      0.299264  1 N  pz                32     -0.299264  2 N  pz         
    10     -0.259812  1 N  s                 33     -0.259812  2 N  s          
     5      0.217336  1 N  pz                28     -0.217336  2 N  pz         
    13      0.177893  1 N  pz                36     -0.177893  2 N  pz         

 Vector    8  Occ=0.000000D+00  E=-4.700873D-02  Symmetry=eg
              MO Center= -1.9D-30,  1.1D-30,  0.0D+00, r^2= 1.7D+00
   Bfn.  Coefficient  Atom+Function         Bfn.  Coefficient  Atom+Function  
  ----- ------------  ---------------      ----- ------------  ---------------
    11      0.389190  1 N  px                34     -0.389190  2 N  px         
    15      0.314672  1 N  px                38     -0.314672  2 N  px         
     7      0.290423  1 N  px                30     -0.290423  2 N  px         
    12     -0.228447  1 N  py                35      0.228447  2 N  py         
     3      0.191720  1 N  px                26     -0.191720  2 N  px         

 Vector    9  Occ=0.000000D+00  E=-4.700873D-02  Symmetry=eg
              MO Center= -4.8D-18, -1.2D-17,  5.6D-16, r^2= 1.7D+00
   Bfn.  Coefficient  Atom+Function         Bfn.  Coefficient  Atom+Function  
  ----- ------------  ---------------      ----- ------------  ---------------
    12      0.389190  1 N  py                35     -0.389190  2 N  py         
    16      0.314672  1 N  py                39     -0.314672  2 N  py         
     8      0.290423  1 N  py                31     -0.290423  2 N  py         
    11      0.228447  1 N  px                34     -0.228447  2 N  px         
     4      0.191720  1 N  py                27     -0.191720  2 N  py         

 Vector   10  Occ=0.000000D+00  E= 6.174881D-02  Symmetry=a1g
              MO Center=  4.2D-16,  4.9D-17, -1.7D-13, r^2= 6.3D+00
   Bfn.  Coefficient  Atom+Function         Bfn.  Coefficient  Atom+Function  
  ----- ------------  ---------------      ----- ------------  ---------------
    14      0.913514  1 N  s                 37      0.913514  2 N  s          
    10     -0.661644  1 N  s                 33     -0.661644  2 N  s          
    17     -0.318213  1 N  pz                40      0.318213  2 N  pz         
    13      0.210921  1 N  pz                36     -0.210921  2 N  pz         

 Vector   11  Occ=0.000000D+00  E= 7.967812D-02  Symmetry=a2u
              MO Center=  9.8D-19, -2.2D-18,  2.2D-13, r^2= 9.2D+00
   Bfn.  Coefficient  Atom+Function         Bfn.  Coefficient  Atom+Function  
  ----- ------------  ---------------      ----- ------------  ---------------
    14     10.886288  1 N  s                 37    -10.886288  2 N  s          
    17      3.710878  1 N  pz                40      3.710878  2 N  pz         
    13     -0.238824  1 N  pz                36     -0.238824  2 N  pz         

 Vector   12  Occ=0.000000D+00  E= 9.109760D-02  Symmetry=eu
              MO Center=  3.8D-18, -3.5D-18, -5.3D-16, r^2= 6.8D+00
   Bfn.  Coefficient  Atom+Function         Bfn.  Coefficient  Atom+Function  
  ----- ------------  ---------------      ----- ------------  ---------------
    15      0.622342  1 N  px                38      0.622342  2 N  px         
    11     -0.232568  1 N  px                34     -0.232568  2 N  px         

 Vector   13  Occ=0.000000D+00  E= 9.109760D-02  Symmetry=eu
              MO Center=  1.3D-17, -2.5D-18, -1.2D-15, r^2= 6.8D+00
   Bfn.  Coefficient  Atom+Function         Bfn.  Coefficient  Atom+Function  
  ----- ------------  ---------------      ----- ------------  ---------------
    16      0.622342  1 N  py                39      0.622342  2 N  py         
    12     -0.232568  1 N  py                35     -0.232568  2 N  py         

 Vector   14  Occ=0.000000D+00  E= 1.404371D-01  Symmetry=a1g
              MO Center= -3.5D-17,  2.6D-17,  5.0D-14, r^2= 7.7D+00
   Bfn.  Coefficient  Atom+Function         Bfn.  Coefficient  Atom+Function  
  ----- ------------  ---------------      ----- ------------  ---------------
    17      1.541361  1 N  pz                40     -1.541361  2 N  pz         
    10     -0.410999  1 N  s                 33     -0.410999  2 N  s          

 Vector   15  Occ=0.000000D+00  E= 1.709006D-01  Symmetry=eg
              MO Center= -6.3D-18, -1.7D-17, -4.4D-16, r^2= 8.3D+00
   Bfn.  Coefficient  Atom+Function         Bfn.  Coefficient  Atom+Function  
  ----- ------------  ---------------      ----- ------------  ---------------
    15      2.053053  1 N  px                38     -2.053053  2 N  px         
    16     -0.756199  1 N  py                39      0.756199  2 N  py         
    11     -0.430904  1 N  px                34      0.430904  2 N  px         
    12      0.158715  1 N  py                35     -0.158715  2 N  py         

 Vector   16  Occ=0.000000D+00  E= 1.709006D-01  Symmetry=eg
              MO Center=  8.7D-18,  7.0D-18,  1.3D-15, r^2= 8.3D+00
   Bfn.  Coefficient  Atom+Function         Bfn.  Coefficient  Atom+Function  
  ----- ------------  ---------------      ----- ------------  ---------------
    16      2.053053  1 N  py                39     -2.053053  2 N  py         
    15      0.756199  1 N  px                38     -0.756199  2 N  px         
    12     -0.430904  1 N  py                35      0.430904  2 N  py         
    11     -0.158715  1 N  px                34      0.158715  2 N  px         

 Vector   17  Occ=0.000000D+00  E= 2.570891D-01  Symmetry=a2u
              MO Center=  1.2D-17, -1.6D-17, -5.1D-14, r^2= 8.9D+00
   Bfn.  Coefficient  Atom+Function         Bfn.  Coefficient  Atom+Function  
  ----- ------------  ---------------      ----- ------------  ---------------
    14     38.163136  1 N  s                 37    -38.163136  2 N  s          
    17     10.299997  1 N  pz                40     10.299997  2 N  pz         
    10     -0.774712  1 N  s                 33      0.774712  2 N  s          
    13      0.326463  1 N  pz                36      0.326463  2 N  pz         

 Vector   18  Occ=0.000000D+00  E= 4.909228D-01  Symmetry=a2u
              MO Center= -1.6D-18,  2.5D-18,  2.9D-15, r^2= 3.3D+00
   Bfn.  Coefficient  Atom+Function         Bfn.  Coefficient  Atom+Function  
  ----- ------------  ---------------      ----- ------------  ---------------
    10      4.560064  1 N  s                 14     -4.565138  1 N  s          
    33     -4.560064  2 N  s                 37      4.565138  2 N  s          
    13      3.009446  1 N  pz                36      3.009446  2 N  pz         
    17     -1.664674  1 N  pz                40     -1.664674  2 N  pz         
     6      0.206033  1 N  s                 29     -0.206033  2 N  s          

 Vector   19  Occ=0.000000D+00  E= 6.673132D-01  Symmetry=a1g
              MO Center= -8.2D-19, -4.1D-19, -9.7D-15, r^2= 3.9D+00
   Bfn.  Coefficient  Atom+Function         Bfn.  Coefficient  Atom+Function  
  ----- ------------  ---------------      ----- ------------  ---------------
    13      1.300739  1 N  pz                36     -1.300739  2 N  pz         
    17     -1.047490  1 N  pz                40      1.047490  2 N  pz         
     9     -0.439064  1 N  pz                32      0.439064  2 N  pz         
     6     -0.313437  1 N  s                 29     -0.313437  2 N  s          
    10      0.215255  1 N  s                 33      0.215255  2 N  s          


 center of mass
 --------------
 x =   0.00000000 y =   0.00000000 z =   0.00000000

 moments of inertia (a.u.)
 ------------------
          31.151319190820           0.000000000000           0.000000000000
           0.000000000000          31.151319190820           0.000000000000
           0.000000000000           0.000000000000           0.000000000000

     Multipole analysis of the density
     ---------------------------------

     L   x y z        total         alpha         beta         nuclear
     -   - - -        -----         -----         ----         -------
     0   0 0 0     -0.000000     -7.000000     -7.000000     14.000000

     1   1 0 0      0.000000      0.000000      0.000000      0.000000
     1   0 1 0      0.000000      0.000000      0.000000      0.000000
     1   0 0 1     -0.000000     -0.000000     -0.000000      0.000000

     2   2 0 0     -7.720435     -3.860218     -3.860218      0.000000
     2   1 1 0     -0.000000     -0.000000     -0.000000      0.000000
     2   1 0 1     -0.000000     -0.000000     -0.000000      0.000000
     2   0 2 0     -7.720435     -3.860218     -3.860218      0.000000
     2   0 1 1      0.000000      0.000000      0.000000      0.000000
     2   0 0 2     -8.948404    -12.260324    -12.260324     15.572245


 Parallel integral file used       3 records with       0 large values


 Task  times  cpu:        1.0s     wall:        1.1s
 Summary of allocated global arrays
-----------------------------------
  No active global arrays



                         GA Statistics for process    0
                         ------------------------------

       create   destroy   get      put      acc     scatter   gather  read&inc
calls: 1305     1305     1.05e+05 2.94e+04 2.68e+04  182        0     1740     
number of processes/call 1.00e+00 1.00e+00 1.00e+00 1.00e+00 0.00e+00
bytes total:             1.13e+08 1.84e+07 6.59e+07 1.87e+06 0.00e+00 1.39e+04
bytes remote:            0.00e+00 0.00e+00 0.00e+00 0.00e+00 0.00e+00 0.00e+00
Max memory consumed for GA by this process: 723616 bytes
MA_summarize_allocated_blocks: starting scan ...
MA_summarize_allocated_blocks: scan completed: 0 heap blocks, 0 stack blocks
MA usage statistics:

	allocation statistics:
					      heap	     stack
					      ----	     -----
	current number of blocks	         0	         0
	maximum number of blocks	        26	        52
	current total bytes		         0	         0
	maximum total bytes		   8305456	  82741792
	maximum total K-bytes		      8306	     82742
	maximum total M-bytes		         9	        83


                                NWChem Input Module
                                -------------------





                                     CITATION
                                     --------
                Please cite the following reference when publishing
                           results obtained with NWChem:

                 M. Valiev, E.J. Bylaska, N. Govind, K. Kowalski,
              T.P. Straatsma, H.J.J. van Dam, D. Wang, J. Nieplocha,
                        E. Apra, T.L. Windus, W.A. de Jong
                 "NWChem: a comprehensive and scalable open-source
                  solution for large scale molecular simulations"
                      Comput. Phys. Commun. 181, 1477 (2010)
                           doi:10.1016/j.cpc.2010.04.018

                              AUTHORS & CONTRIBUTORS
                              ----------------------
          E. Apra, E. J. Bylaska, W. A. de Jong, N. Govind, K. Kowalski,
       T. P. Straatsma, M. Valiev, H. J. J. van Dam, D. Wang, T. L. Windus,
        J. Hammond, J. Autschbach, K. Bhaskaran-Nair, J. Brabec, K. Lopata,
     F. Aquino, S. Hirata, M. T. Hackler, J. Mullin, P. Nichols, R. Peverati,
    J. Pittner, Y. Zhao, P.-D. Fan, R. J. Harrison, M. Dupuis, D. Silverstein,
    D. M. A. Smith, J. Nieplocha, V. Tipparaju, M. Krishnan, B. E. Van Kuiken,
        A. Vazquez-Mayagoitia, L. Jensen, M. Swart, Q. Wu, T. Van Voorhis,
     A. A. Auer, M. Nooijen, L. D. Crosby, E. Brown, G. Cisneros, G. I. Fann,
     H. Fruchtl, J. Garza, K. Hirao, R. Kendall, J. A. Nichols, K. Tsemekhman,
      K. Wolinski, J. Anchell, D. Bernholdt, P. Borowski, T. Clark, D. Clerc,
      H. Dachsel, M. Deegan, K. Dyall, D. Elwood, E. Glendening, M. Gutowski,
      A. Hess, J. Jaffe, B. Johnson, J. Ju, R. Kobayashi, R. Kutteh, Z. Lin,
   R. Littlefield, X. Long, B. Meng, T. Nakajima, S. Niu, L. Pollack, M. Rosing,
   K. Glaesemann, G. Sandrone, M. Stave, H. Taylor, G. Thomas, J. H. van Lenthe,
                                A. Wong, Z. Zhang.

 Total times  cpu:       12.4s     wall:       13.1s
