 argument  1 = NH3.nw
                                         
                                         


              Northwest Computational Chemistry Package (NWChem) 6.3
              ------------------------------------------------------


                    Environmental Molecular Sciences Laboratory
                       Pacific Northwest National Laboratory
                                Richland, WA 99352

                              Copyright (c) 1994-2012
                       Pacific Northwest National Laboratory
                            Battelle Memorial Institute

             NWChem is an open-source computational chemistry package
                        distributed under the terms of the
                      Educational Community License (ECL) 2.0
             A copy of the license is included with this distribution
                              in the LICENSE.TXT file

                                  ACKNOWLEDGMENT
                                  --------------

            This software and its documentation were developed at the
            EMSL at Pacific Northwest National Laboratory, a multiprogram
            national laboratory, operated for the U.S. Department of Energy
            by Battelle under Contract Number DE-AC05-76RL01830. Support
            for this work was provided by the Department of Energy Office
            of Biological and Environmental Research, Office of Basic
            Energy Sciences, and the Office of Advanced Scientific Computing.


           Job information
           ---------------

    hostname        = ChensPro.local
    program         = nwchem
    date            = Sun Apr 19 22:33:43 2015

    compiled        = Sat_Jul_20_13:52:43_2013
    source          = /Users/shyuepingong/Software/nwchem-6.3
    nwchem branch   = 6.3
    nwchem revision = 24277
    ga revision     = 10379
    input           = NH3.nw
    prefix          = NH3.
    data base       = ./NH3.db
    status          = startup
    nproc           =        1
    time left       =     -1s



           Memory information
           ------------------

    heap     =   32768001 doubles =    250.0 Mbytes
    stack    =   32768001 doubles =    250.0 Mbytes
    global   =   65536000 doubles =    500.0 Mbytes (distinct from heap & stack)
    total    =  131072002 doubles =   1000.0 Mbytes
    verify   = yes
    hardfail = no 


           Directory information
           ---------------------

  0 permanent = .
  0 scratch   = .




                                NWChem Input Module
                                -------------------



 Scaling coordinates for geometry "geometry" by  1.889725989
 (inverse scale =  0.529177249)

 C3V symmetry detected


                             Geometry "geometry" -> ""
                             -------------------------

 Output coordinates in angstroms (scale by  1.889725989 to convert to a.u.)

  No.       Tag          Charge          X              Y              Z
 ---- ---------------- ---------- -------------- -------------- --------------
    1 N                    7.0000     0.00000000     0.00000000     0.10898739
    2 H                    1.0000     0.72683573     0.72683573    -0.25430392
    3 H                    1.0000     0.26604034    -0.99287607    -0.25430392
    4 H                    1.0000    -0.99287607     0.26604034    -0.25430392

      Atomic Mass 
      ----------- 

      N                 14.003070
      H                  1.007825


 Effective nuclear repulsion energy (a.u.)      11.0848640562

            Nuclear Dipole moment (a.u.) 
            ----------------------------
        X                 Y               Z
 ---------------- ---------------- ----------------
     0.0000000000    -0.0000000000     0.0000000000

      Symmetry information
      --------------------

 Group name             C3v       
 Group number             17
 Group order               6
 No. of unique centers     2

      Symmetry unique atoms

     1    2


            XYZ format geometry
            -------------------
     4
 geometry
 N                     0.00000000     0.00000000     0.10898739
 H                     0.72683573     0.72683573    -0.25430392
 H                     0.26604034    -0.99287607    -0.25430392
 H                    -0.99287607     0.26604034    -0.25430392

 ==============================================================================
                                internuclear distances
 ------------------------------------------------------------------------------
       center one      |      center two      | atomic units |  angstroms
 ------------------------------------------------------------------------------
    2 H                |   1 N                |     2.06020  |     1.09021
    3 H                |   1 N                |     2.06020  |     1.09021
    4 H                |   1 N                |     2.06020  |     1.09021
 ------------------------------------------------------------------------------
                         number of included internuclear distances:          3
 ==============================================================================



 ==============================================================================
                                 internuclear angles
 ------------------------------------------------------------------------------
        center 1       |       center 2       |       center 3       |  degrees
 ------------------------------------------------------------------------------
    2 H                |   1 N                |   3 H                |   109.48
    2 H                |   1 N                |   4 H                |   109.48
    3 H                |   1 N                |   4 H                |   109.48
 ------------------------------------------------------------------------------
                            number of included internuclear angles:          3
 ==============================================================================



                                 H3N1 dft optimize
                                 -----------------
  library name resolved from: environment
  library file name is: </Users/chenzheng/Google Drive/nano266/resources/nwchem_basis/>
  
                      Basis "ao basis" -> "" (cartesian)
                      -----
  H (Hydrogen)
  ------------
            Exponent  Coefficients 
       -------------- ---------------------------------------------------------
  1 S  1.87311370E+01  0.033495
  1 S  2.82539370E+00  0.234727
  1 S  6.40121700E-01  0.813757

  2 S  1.61277800E-01  1.000000

  N (Nitrogen)
  ------------
            Exponent  Coefficients 
       -------------- ---------------------------------------------------------
  1 S  4.17351100E+03  0.001835
  1 S  6.27457900E+02  0.013995
  1 S  1.42902100E+02  0.068587
  1 S  4.02343300E+01  0.232241
  1 S  1.28202100E+01  0.469070
  1 S  4.39043700E+00  0.360455

  2 S  1.16263580E+01 -0.114961
  2 S  2.71628000E+00 -0.169118
  2 S  7.72218000E-01  1.145852

  3 P  1.16263580E+01  0.067580
  3 P  2.71628000E+00  0.323907
  3 P  7.72218000E-01  0.740895

  4 S  2.12031300E-01  1.000000

  5 P  2.12031300E-01  1.000000

  6 S  6.39000000E-02  1.000000

  7 P  6.39000000E-02  1.000000

  8 D  8.00000000E-01  1.000000



 Summary of "ao basis" -> "" (cartesian)
 ------------------------------------------------------------------------------
       Tag                 Description            Shells   Functions and Types
 ---------------- ------------------------------  ------  ---------------------
 H                          6-31+G*                  2        2   2s
 N                          6-31+G*                  8       19   4s3p1d


  pbe96 is a nonlocal functional; adding pw91lda local functional. 


                           NWChem Geometry Optimization
                           ----------------------------




                                 H3N1 dft optimize


 maximum gradient threshold         (gmax) =   0.000450
 rms gradient threshold             (grms) =   0.000300
 maximum cartesian step threshold   (xmax) =   0.001800
 rms cartesian step threshold       (xrms) =   0.001200
 fixed trust radius                (trust) =   0.300000
 maximum step size to saddle      (sadstp) =   0.100000
 energy precision                  (eprec) =   5.0D-06
 maximum number of steps          (nptopt) =   20
 initial hessian option           (inhess) =    0
 line search option               (linopt) =    1
 hessian update option            (modupd) =    1
 saddle point option              (modsad) =    0
 initial eigen-mode to follow     (moddir) =    0
 initial variable to follow       (vardir) =    0
 follow first negative mode     (firstneg) =    T
 apply conjugacy                    (opcg) =    F
 source of zmatrix                         =           


          -------------------
          Energy Minimization
          -------------------


 Using diagonal initial Hessian 

          --------
          Step   0
          --------


                         Geometry "geometry" -> "geometry"
                         ---------------------------------

 Output coordinates in angstroms (scale by  1.889725989 to convert to a.u.)

  No.       Tag          Charge          X              Y              Z
 ---- ---------------- ---------- -------------- -------------- --------------
    1 N                    7.0000     0.00000000     0.00000000     0.10898739
    2 H                    1.0000     0.72683573     0.72683573    -0.25430392
    3 H                    1.0000     0.26604034    -0.99287607    -0.25430392
    4 H                    1.0000    -0.99287607     0.26604034    -0.25430392

      Atomic Mass 
      ----------- 

      N                 14.003070
      H                  1.007825


 Effective nuclear repulsion energy (a.u.)      11.0848640562

            Nuclear Dipole moment (a.u.) 
            ----------------------------
        X                 Y               Z
 ---------------- ---------------- ----------------
     0.0000000000    -0.0000000000     0.0000000000

      Symmetry information
      --------------------

 Group name             C3v       
 Group number             17
 Group order               6
 No. of unique centers     2

      Symmetry unique atoms

     1    2


                                 NWChem DFT Module
                                 -----------------


                                 H3N1 dft optimize


  Caching 1-el integrals 
  Rotation of axis 

            General Information
            -------------------
          SCF calculation type: DFT
          Wavefunction type:  closed shell.
          No. of atoms     :     4
          No. of electrons :    10
           Alpha electrons :     5
            Beta electrons :     5
          Charge           :     0
          Spin multiplicity:     1
          Use of symmetry is: on ; symmetry adaption is: on 
          Maximum number of iterations:  30
          AO basis - number of functions:    25
                     number of shells:    14
          Convergence on energy requested: 1.00D-06
          Convergence on density requested: 1.00D-05
          Convergence on gradient requested: 5.00D-04

              XC Information
              --------------
          PerdewBurkeErnzerhof Exchange Functional  1.000          
            Perdew 1991 LDA Correlation Functional  1.000 local    
           PerdewBurkeErnz. Correlation Functional  1.000 non-local

             Grid Information
             ----------------
          Grid used for XC integration:  medium    
          Radial quadrature: Mura-Knowles        
          Angular quadrature: Lebedev. 
          Tag              B.-S. Rad. Rad. Pts. Rad. Cut. Ang. Pts.
          ---              ---------- --------- --------- ---------
          N                   0.65       49           6.0       434
          H                   0.35       45           7.0       434
          Grid pruning is: on 
          Number of quadrature shells:    94
          Spatial weights used:  Erf1

          Convergence Information
          -----------------------
          Convergence aids based upon iterative change in 
          total energy or number of iterations. 
          Levelshifting, if invoked, occurs when the 
          HOMO/LUMO gap drops below (HL_TOL): 1.00D-02
          DIIS, if invoked, will attempt to extrapolate 
          using up to (NFOCK): 10 stored Fock matrices.

                    Damping( 0%)  Levelshifting(0.5)       DIIS
                  --------------- ------------------- ---------------
          dE  on:    start            ASAP                start   
          dE off:    2 iters         30 iters            30 iters 


      Screening Tolerance Information
      -------------------------------
          Density screening/tol_rho: 1.00D-10
          AO Gaussian exp screening on grid/accAOfunc:  14
          CD Gaussian exp screening on grid/accCDfunc:  20
          XC Gaussian exp screening on grid/accXCfunc:  20
          Schwarz screening/accCoul: 1.00D-08


      Superposition of Atomic Density Guess
      -------------------------------------

 Sum of atomic energies:         -55.79033969

      Non-variational initial energy
      ------------------------------

 Total energy =     -56.003803
 1-e energy   =     -96.710835
 2-e energy   =      29.622168
 HOMO         =      -0.347707
 LUMO         =       0.056047


      Symmetry analysis of molecular orbitals - initial
      -------------------------------------------------

  Numbering of irreducible representations: 

     1 a1          2 a2          3 e       

  Orbital symmetries:

     1 a1          2 a1          3 e           4 e           5 a1      
     6 a1          7 e           8 e           9 a1         10 e       
    11 e          12 a1         13 e          14 e          15 a1      

   Time after variat. SCF:      0.1
   Time prior to 1st pass:      0.1

 #quartets = 2.175D+03 #integrals = 1.621D+04 #direct =  0.0% #cached =100.0%


 Integral file          = ./NH3.aoints.0
 Record size in doubles =  65536        No. of integs per rec  =  43688
 Max. records in memory =      2        Max. records in file   = 184751
 No. of bits per label  =      8        No. of bits per value  =     64


 Grid_pts file          = ./NH3.gridpts.0
 Record size in doubles =  12289        No. of grid_pts per rec  =   3070
 Max. records in memory =     16        Max. recs in file   =    985265


           Memory utilization after 1st SCF pass: 
           Heap Space remaining (MW):       32.44            32438492
          Stack Space remaining (MW):       32.77            32767739

   convergence    iter        energy       DeltaE   RMS-Dens  Diis-err    time
 ---------------- ----- ----------------- --------- --------- ---------  ------
 d= 0,ls=0.0,diis     1    -56.4458860825 -6.75D+01  2.42D-02  2.47D-01     0.2
 d= 0,ls=0.0,diis     2    -56.4283577513  1.75D-02  1.65D-02  3.65D-01     0.3
 d= 0,ls=0.0,diis     3    -56.4647356986 -3.64D-02  4.39D-03  5.30D-02     0.3
 d= 0,ls=0.0,diis     4    -56.4706183189 -5.88D-03  7.44D-04  3.01D-04     0.4
 d= 0,ls=0.0,diis     5    -56.4706537643 -3.54D-05  4.59D-05  1.33D-06     0.5
 d= 0,ls=0.0,diis     6    -56.4706539615 -1.97D-07  3.54D-06  1.71D-08     0.5


         Total DFT energy =      -56.470653961541
      One electron energy =      -97.943892277958
           Coulomb energy =       38.220909313338
    Exchange-Corr. energy =       -7.832535053146
 Nuclear repulsion energy =       11.084864056225

 Numeric. integr. density =       10.000000013842

     Total iterative time =      0.4s



                  Occupations of the irreducible representations
                  ----------------------------------------------

                     irrep           alpha         beta
                     --------     --------     --------
                     a1                3.0          3.0
                     a2                0.0          0.0
                     e                 2.0          2.0


                       DFT Final Molecular Orbital Analysis
                       ------------------------------------

 Vector    1  Occ=2.000000D+00  E=-1.401075D+01  Symmetry=a1
              MO Center=  2.5D-18,  3.2D-18,  1.1D-01, r^2= 2.0D-02
   Bfn.  Coefficient  Atom+Function         Bfn.  Coefficient  Atom+Function  
  ----- ------------  ---------------      ----- ------------  ---------------
     1      0.992423  1 N  s          

 Vector    2  Occ=2.000000D+00  E=-7.520847D-01  Symmetry=a1
              MO Center= -7.4D-18,  3.8D-18, -7.4D-02, r^2= 7.3D-01
   Bfn.  Coefficient  Atom+Function         Bfn.  Coefficient  Atom+Function  
  ----- ------------  ---------------      ----- ------------  ---------------
     6      0.470271  1 N  s                  2      0.420108  1 N  s          
     1     -0.201168  1 N  s          

 Vector    3  Occ=2.000000D+00  E=-4.037874D-01  Symmetry=e
              MO Center=  1.8D-01,  1.2D-01, -5.1D-02, r^2= 1.1D+00
   Bfn.  Coefficient  Atom+Function         Bfn.  Coefficient  Atom+Function  
  ----- ------------  ---------------      ----- ------------  ---------------
     4      0.368608  1 N  py                 3      0.301770  1 N  px         
    20      0.278102  2 H  s                  8      0.197297  1 N  py         
    21      0.171453  2 H  s                 22     -0.163064  3 H  s          
     7      0.161522  1 N  px         

 Vector    4  Occ=2.000000D+00  E=-4.037874D-01  Symmetry=e
              MO Center= -1.8D-01, -1.2D-01, -5.1D-02, r^2= 1.1D+00
   Bfn.  Coefficient  Atom+Function         Bfn.  Coefficient  Atom+Function  
  ----- ------------  ---------------      ----- ------------  ---------------
     3      0.368608  1 N  px                 4     -0.301770  1 N  py         
    24     -0.254707  4 H  s                 22      0.226980  3 H  s          
     7      0.197297  1 N  px                 8     -0.161522  1 N  py         
    25     -0.157029  4 H  s          

 Vector    5  Occ=2.000000D+00  E=-2.137941D-01  Symmetry=a1
              MO Center= -1.1D-16,  3.7D-17,  2.4D-01, r^2= 1.1D+00
   Bfn.  Coefficient  Atom+Function         Bfn.  Coefficient  Atom+Function  
  ----- ------------  ---------------      ----- ------------  ---------------
     5      0.554785  1 N  pz                 9      0.411652  1 N  pz         
     6      0.234687  1 N  s                 13      0.162872  1 N  pz         
     2      0.155829  1 N  s          

 Vector    6  Occ=0.000000D+00  E=-6.385614D-03  Symmetry=a1
              MO Center=  3.8D-16,  4.5D-16, -4.7D-01, r^2= 4.2D+00
   Bfn.  Coefficient  Atom+Function         Bfn.  Coefficient  Atom+Function  
  ----- ------------  ---------------      ----- ------------  ---------------
    10      1.239134  1 N  s                  6     -1.031626  1 N  s          
    13     -0.281796  1 N  pz                 9      0.200273  1 N  pz         
     5      0.196710  1 N  pz                 2     -0.188809  1 N  s          

 Vector    7  Occ=0.000000D+00  E= 7.318490D-02  Symmetry=e
              MO Center= -8.2D-02, -5.7D-02,  3.7D-02, r^2= 5.7D+00
   Bfn.  Coefficient  Atom+Function         Bfn.  Coefficient  Atom+Function  
  ----- ------------  ---------------      ----- ------------  ---------------
    11      0.814480  1 N  px                12     -0.684894  1 N  py         
     7     -0.411285  1 N  px                 8      0.345848  1 N  py         
     3     -0.257710  1 N  px                 4      0.216708  1 N  py         
    25     -0.173861  4 H  s                 23      0.157335  3 H  s          

 Vector    8  Occ=0.000000D+00  E= 7.318490D-02  Symmetry=e
              MO Center=  8.2D-02,  5.7D-02,  3.7D-02, r^2= 5.7D+00
   Bfn.  Coefficient  Atom+Function         Bfn.  Coefficient  Atom+Function  
  ----- ------------  ---------------      ----- ------------  ---------------
    12      0.814480  1 N  py                11      0.684894  1 N  px         
     8     -0.411285  1 N  py                 7     -0.345848  1 N  px         
     4     -0.257710  1 N  py                 3     -0.216708  1 N  px         
    21      0.191216  2 H  s          

 Vector    9  Occ=0.000000D+00  E= 1.050565D-01  Symmetry=a1
              MO Center=  1.5D-15,  1.3D-15,  4.2D-01, r^2= 6.1D+00
   Bfn.  Coefficient  Atom+Function         Bfn.  Coefficient  Atom+Function  
  ----- ------------  ---------------      ----- ------------  ---------------
    13      1.230269  1 N  pz                 6     -0.618771  1 N  s          
     9     -0.332794  1 N  pz                21      0.328606  2 H  s          
    23      0.328606  3 H  s                 25      0.328606  4 H  s          
     5     -0.236731  1 N  pz         

 Vector   10  Occ=0.000000D+00  E= 1.427109D-01  Symmetry=e
              MO Center= -2.2D-02, -2.1D-02,  8.3D-02, r^2= 3.9D+00
   Bfn.  Coefficient  Atom+Function         Bfn.  Coefficient  Atom+Function  
  ----- ------------  ---------------      ----- ------------  ---------------
    23      1.505780  3 H  s                 25     -1.513231  4 H  s          
    11     -0.735811  1 N  px                12      0.729547  1 N  py         
     7     -0.569628  1 N  px                 8      0.564779  1 N  py         
     3     -0.214783  1 N  px                 4      0.212955  1 N  py         
    22      0.187887  3 H  s                 24     -0.188816  4 H  s          

 Vector   11  Occ=0.000000D+00  E= 1.427109D-01  Symmetry=e
              MO Center=  2.2D-02,  2.1D-02,  8.3D-02, r^2= 3.9D+00
   Bfn.  Coefficient  Atom+Function         Bfn.  Coefficient  Atom+Function  
  ----- ------------  ---------------      ----- ------------  ---------------
    21      1.743027  2 H  s                 23     -0.877966  3 H  s          
    25     -0.865061  4 H  s                 12     -0.735811  1 N  py         
    11     -0.729547  1 N  px                 8     -0.569628  1 N  py         
     7     -0.564779  1 N  px                20      0.217490  2 H  s          
     4     -0.214783  1 N  py                 3     -0.212955  1 N  px         

 Vector   12  Occ=0.000000D+00  E= 1.947535D-01  Symmetry=a1
              MO Center=  5.2D-15, -6.0D-15, -2.4D-01, r^2= 4.9D+00
   Bfn.  Coefficient  Atom+Function         Bfn.  Coefficient  Atom+Function  
  ----- ------------  ---------------      ----- ------------  ---------------
    10      2.691498  1 N  s                 21     -1.628899  2 H  s          
    23     -1.628899  3 H  s                 25     -1.628899  4 H  s          
     6      1.309387  1 N  s                  9     -0.565136  1 N  pz         
    13     -0.403533  1 N  pz                 5     -0.187175  1 N  pz         
    20     -0.156933  2 H  s                 22     -0.156933  3 H  s          

 Vector   13  Occ=0.000000D+00  E= 7.990464D-01  Symmetry=e
              MO Center= -6.8D-02,  4.8D-02,  5.0D-02, r^2= 2.0D+00
   Bfn.  Coefficient  Atom+Function         Bfn.  Coefficient  Atom+Function  
  ----- ------------  ---------------      ----- ------------  ---------------
     7      1.709321  1 N  px                25      1.074324  4 H  s          
     3     -1.033220  1 N  px                21     -0.706424  2 H  s          
    23     -0.367900  3 H  s                 24     -0.197774  4 H  s          
    11     -0.184567  1 N  px         

 Vector   14  Occ=0.000000D+00  E= 7.990464D-01  Symmetry=e
              MO Center=  6.8D-02, -4.8D-02,  5.0D-02, r^2= 2.0D+00
   Bfn.  Coefficient  Atom+Function         Bfn.  Coefficient  Atom+Function  
  ----- ------------  ---------------      ----- ------------  ---------------
     8      1.709321  1 N  py                 4     -1.033220  1 N  py         
    23      1.028115  3 H  s                 21     -0.832668  2 H  s          
    25     -0.195447  4 H  s                 22     -0.189268  3 H  s          
    12     -0.184567  1 N  py                20      0.153287  2 H  s          

 Vector   15  Occ=0.000000D+00  E= 8.320366D-01  Symmetry=a1
              MO Center= -6.1D-16,  2.4D-16,  1.6D-01, r^2= 2.2D+00
   Bfn.  Coefficient  Atom+Function         Bfn.  Coefficient  Atom+Function  
  ----- ------------  ---------------      ----- ------------  ---------------
     9      1.598758  1 N  pz                 5     -1.019927  1 N  pz         
     6     -0.791633  1 N  s                 10     -0.646309  1 N  s          
    21      0.578155  2 H  s                 23      0.578155  3 H  s          
    25      0.578155  4 H  s                 13     -0.505512  1 N  pz         
     2      0.170052  1 N  s          


 center of mass
 --------------
 x =   0.00000000 y =  -0.00000000 z =   0.08404789

 moments of inertia (a.u.)
 ------------------
           6.875916168729           0.000000000000           0.000000000000
           0.000000000000           6.875916168729           0.000000000000
           0.000000000000           0.000000000000          11.407922994090

     Multipole analysis of the density
     ---------------------------------

     L   x y z        total         alpha         beta         nuclear
     -   - - -        -----         -----         ----         -------
     0   0 0 0     -0.000000     -5.000000     -5.000000     10.000000

     1   1 0 0      0.000000      0.000000      0.000000      0.000000
     1   0 1 0      0.000000      0.000000      0.000000     -0.000000
     1   0 0 1     -0.649555     -0.324778     -0.324778      0.000000

     2   2 0 0     -4.667682     -5.163678     -5.163678      5.659675
     2   1 1 0      0.000000      0.000000      0.000000     -0.000000
     2   1 0 1      0.000000      0.000000      0.000000      0.000000
     2   0 2 0     -4.667682     -5.163678     -5.163678      5.659675
     2   0 1 1     -0.000000     -0.000000     -0.000000      0.000000
     2   0 0 2     -7.684980     -4.337366     -4.337366      0.989753


 Parallel integral file used       1 records with       0 large values



                            NWChem DFT Gradient Module
                            --------------------------


                                 H3N1 dft optimize



  charge          =   0.00
  wavefunction    = closed shell

  Rotation of axis 
  Using symmetry


                         DFT ENERGY GRADIENTS

    atom               coordinates                        gradient
                 x          y          z           x          y          z
   1 N       0.000000   0.000000   0.205956    0.000000   0.000000   0.027281
   2 H       1.373520   1.373520  -0.480565    0.031126   0.031126  -0.009094
   3 H       0.502743  -1.876264  -0.480565    0.011393  -0.042519  -0.009094
   4 H      -1.876264   0.502743  -0.480565   -0.042519   0.011393  -0.009094

                 ----------------------------------------
                 |  Time  |  1-e(secs)   |  2-e(secs)   |
                 ----------------------------------------
                 |  CPU   |       0.00   |       0.03   |
                 ----------------------------------------
                 |  WALL  |       0.00   |       0.03   |
                 ----------------------------------------

@ Step       Energy      Delta E   Gmax     Grms     Xrms     Xmax   Walltime
@ ---- ---------------- -------- -------- -------- -------- -------- --------
@    0     -56.47065396  0.0D+00  0.04252  0.02381  0.00000  0.00000      0.7
                                                                    


                                 NWChem DFT Module
                                 -----------------


                                 H3N1 dft optimize


  Caching 1-el integrals 
  Rotation of axis 

            General Information
            -------------------
          SCF calculation type: DFT
          Wavefunction type:  closed shell.
          No. of atoms     :     4
          No. of electrons :    10
           Alpha electrons :     5
            Beta electrons :     5
          Charge           :     0
          Spin multiplicity:     1
          Use of symmetry is: on ; symmetry adaption is: on 
          Maximum number of iterations:  30
          AO basis - number of functions:    25
                     number of shells:    14
          Convergence on energy requested: 1.00D-06
          Convergence on density requested: 1.00D-05
          Convergence on gradient requested: 5.00D-04

              XC Information
              --------------
          PerdewBurkeErnzerhof Exchange Functional  1.000          
            Perdew 1991 LDA Correlation Functional  1.000 local    
           PerdewBurkeErnz. Correlation Functional  1.000 non-local

             Grid Information
             ----------------
          Grid used for XC integration:  medium    
          Radial quadrature: Mura-Knowles        
          Angular quadrature: Lebedev. 
          Tag              B.-S. Rad. Rad. Pts. Rad. Cut. Ang. Pts.
          ---              ---------- --------- --------- ---------
          N                   0.65       49           6.0       434
          H                   0.35       45           7.0       434
          Grid pruning is: on 
          Number of quadrature shells:    94
          Spatial weights used:  Erf1

          Convergence Information
          -----------------------
          Convergence aids based upon iterative change in 
          total energy or number of iterations. 
          Levelshifting, if invoked, occurs when the 
          HOMO/LUMO gap drops below (HL_TOL): 1.00D-02
          DIIS, if invoked, will attempt to extrapolate 
          using up to (NFOCK): 10 stored Fock matrices.

                    Damping( 0%)  Levelshifting(0.5)       DIIS
                  --------------- ------------------- ---------------
          dE  on:    start            ASAP                start   
          dE off:    2 iters         30 iters            30 iters 


      Screening Tolerance Information
      -------------------------------
          Density screening/tol_rho: 1.00D-10
          AO Gaussian exp screening on grid/accAOfunc:  14
          CD Gaussian exp screening on grid/accCDfunc:  20
          XC Gaussian exp screening on grid/accXCfunc:  20
          Schwarz screening/accCoul: 1.00D-08


 Loading old vectors from job with title :

H3N1 dft optimize


      Symmetry analysis of molecular orbitals - initial
      -------------------------------------------------

  Numbering of irreducible representations: 

     1 a1          2 a2          3 e       

  Orbital symmetries:

     1 a1          2 a1          3 e           4 e           5 a1      
     6 a1          7 e           8 e           9 a1         10 e       
    11 e          12 a1         13 e          14 e          15 a1      

   Time after variat. SCF:      0.7
   Time prior to 1st pass:      0.7

 #quartets = 2.175D+03 #integrals = 1.621D+04 #direct =  0.0% #cached =100.0%


 Integral file          = ./NH3.aoints.0
 Record size in doubles =  65536        No. of integs per rec  =  43688
 Max. records in memory =      2        Max. records in file   = 184749
 No. of bits per label  =      8        No. of bits per value  =     64


 Grid_pts file          = ./NH3.gridpts.0
 Record size in doubles =  12289        No. of grid_pts per rec  =   3070
 Max. records in memory =     16        Max. recs in file   =    985255


           Memory utilization after 1st SCF pass: 
           Heap Space remaining (MW):       32.44            32438492
          Stack Space remaining (MW):       32.77            32767739

   convergence    iter        energy       DeltaE   RMS-Dens  Diis-err    time
 ---------------- ----- ----------------- --------- --------- ---------  ------
 d= 0,ls=0.0,diis     1    -56.4781574796 -6.82D+01  5.76D-03  1.25D-02     0.8
 d= 0,ls=0.0,diis     2    -56.4772648948  8.93D-04  3.33D-03  2.36D-02     0.9
 d= 0,ls=0.0,diis     3    -56.4797549241 -2.49D-03  7.62D-04  1.02D-03     0.9
 d= 0,ls=0.0,diis     4    -56.4798616677 -1.07D-04  1.53D-04  1.42D-05     1.0
 d= 0,ls=0.0,diis     5    -56.4798632768 -1.61D-06  7.75D-06  8.28D-08     1.1
 d= 0,ls=0.0,diis     6    -56.4798632878 -1.09D-08  3.14D-07  4.52D-11     1.1


         Total DFT energy =      -56.479863287758
      One electron energy =      -99.041126894461
           Coulomb energy =       38.778304064189
    Exchange-Corr. energy =       -7.897820559529
 Nuclear repulsion energy =       11.680780102041

 Numeric. integr. density =       10.000000146808

     Total iterative time =      0.5s



                  Occupations of the irreducible representations
                  ----------------------------------------------

                     irrep           alpha         beta
                     --------     --------     --------
                     a1                3.0          3.0
                     a2                0.0          0.0
                     e                 2.0          2.0


                       DFT Final Molecular Orbital Analysis
                       ------------------------------------

 Vector    1  Occ=2.000000D+00  E=-1.399664D+01  Symmetry=a1
              MO Center= -7.9D-19, -1.5D-18,  1.2D-01, r^2= 2.0D-02
   Bfn.  Coefficient  Atom+Function         Bfn.  Coefficient  Atom+Function  
  ----- ------------  ---------------      ----- ------------  ---------------
     1      0.992353  1 N  s          

 Vector    2  Occ=2.000000D+00  E=-7.737565D-01  Symmetry=a1
              MO Center= -1.6D-17, -3.4D-17, -8.4D-02, r^2= 7.0D-01
   Bfn.  Coefficient  Atom+Function         Bfn.  Coefficient  Atom+Function  
  ----- ------------  ---------------      ----- ------------  ---------------
     6      0.458035  1 N  s                  2      0.416192  1 N  s          
     1     -0.200213  1 N  s          

 Vector    3  Occ=2.000000D+00  E=-4.146866D-01  Symmetry=e
              MO Center= -1.9D-01, -4.9D-02, -4.7D-02, r^2= 1.0D+00
   Bfn.  Coefficient  Atom+Function         Bfn.  Coefficient  Atom+Function  
  ----- ------------  ---------------      ----- ------------  ---------------
     3      0.421509  1 N  px                24     -0.272930  4 H  s          
     4     -0.239997  1 N  py                 7      0.217355  1 N  px         
    22      0.198281  3 H  s                 25     -0.158914  4 H  s          

 Vector    4  Occ=2.000000D+00  E=-4.146866D-01  Symmetry=e
              MO Center=  1.9D-01,  4.9D-02, -4.7D-02, r^2= 1.0D+00
   Bfn.  Coefficient  Atom+Function         Bfn.  Coefficient  Atom+Function  
  ----- ------------  ---------------      ----- ------------  ---------------
     4      0.421509  1 N  py                20      0.272054  2 H  s          
     3      0.239997  1 N  px                 8      0.217355  1 N  py         
    22     -0.200675  3 H  s                 21      0.158403  2 H  s          

 Vector    5  Occ=2.000000D+00  E=-2.185520D-01  Symmetry=a1
              MO Center=  8.1D-17, -1.3D-16,  2.7D-01, r^2= 1.0D+00
   Bfn.  Coefficient  Atom+Function         Bfn.  Coefficient  Atom+Function  
  ----- ------------  ---------------      ----- ------------  ---------------
     5      0.552522  1 N  pz                 9      0.415000  1 N  pz         
     6      0.230768  1 N  s                  2      0.164385  1 N  s          
    13      0.156985  1 N  pz         

 Vector    6  Occ=0.000000D+00  E= 4.683509D-04  Symmetry=a1
              MO Center=  4.3D-16,  1.9D-17, -5.9D-01, r^2= 4.4D+00
   Bfn.  Coefficient  Atom+Function         Bfn.  Coefficient  Atom+Function  
  ----- ------------  ---------------      ----- ------------  ---------------
    10      1.410584  1 N  s                  6     -0.886092  1 N  s          
    13     -0.366772  1 N  pz                 5      0.186189  1 N  pz         
     2     -0.180565  1 N  s                  9      0.161286  1 N  pz         

 Vector    7  Occ=0.000000D+00  E= 7.712406D-02  Symmetry=e
              MO Center=  5.9D-04, -2.7D-02,  9.5D-02, r^2= 6.1D+00
   Bfn.  Coefficient  Atom+Function         Bfn.  Coefficient  Atom+Function  
  ----- ------------  ---------------      ----- ------------  ---------------
    12      1.065981  1 N  py                11     -0.427724  1 N  px         
     8     -0.419952  1 N  py                 4     -0.271579  1 N  py         
     7      0.168505  1 N  px         

 Vector    8  Occ=0.000000D+00  E= 7.712406D-02  Symmetry=e
              MO Center= -5.9D-04,  2.7D-02,  9.5D-02, r^2= 6.1D+00
   Bfn.  Coefficient  Atom+Function         Bfn.  Coefficient  Atom+Function  
  ----- ------------  ---------------      ----- ------------  ---------------
    11      1.065981  1 N  px                12      0.427724  1 N  py         
     7     -0.419952  1 N  px                 3     -0.271579  1 N  px         
     8     -0.168505  1 N  py         

 Vector    9  Occ=0.000000D+00  E= 1.067854D-01  Symmetry=a1
              MO Center=  3.5D-15,  6.0D-16,  6.3D-01, r^2= 5.9D+00
   Bfn.  Coefficient  Atom+Function         Bfn.  Coefficient  Atom+Function  
  ----- ------------  ---------------      ----- ------------  ---------------
    13      1.205013  1 N  pz                 6     -0.664951  1 N  s          
     9     -0.334177  1 N  pz                21      0.279269  2 H  s          
    23      0.279269  3 H  s                 25      0.279269  4 H  s          
     5     -0.233084  1 N  pz         

 Vector   10  Occ=0.000000D+00  E= 1.612186D-01  Symmetry=e
              MO Center= -6.9D-02, -1.1D-01,  1.5D-02, r^2= 3.5D+00
   Bfn.  Coefficient  Atom+Function         Bfn.  Coefficient  Atom+Function  
  ----- ------------  ---------------      ----- ------------  ---------------
    23      1.746082  3 H  s                 25     -1.549087  4 H  s          
     8      0.722637  1 N  py                12      0.714292  1 N  py         
     7     -0.587025  1 N  px                11     -0.580247  1 N  px         
     4      0.250465  1 N  py                 3     -0.203462  1 N  px         
    21     -0.196995  2 H  s                 22      0.195211  3 H  s          

 Vector   11  Occ=0.000000D+00  E= 1.612186D-01  Symmetry=e
              MO Center=  6.9D-02,  1.1D-01,  1.5D-02, r^2= 3.5D+00
   Bfn.  Coefficient  Atom+Function         Bfn.  Coefficient  Atom+Function  
  ----- ------------  ---------------      ----- ------------  ---------------
    21      1.902466  2 H  s                 25     -1.121836  4 H  s          
    23     -0.780630  3 H  s                  7     -0.722637  1 N  px         
    11     -0.714292  1 N  px                 8     -0.587025  1 N  py         
    12     -0.580247  1 N  py                 3     -0.250465  1 N  px         
    20      0.212695  2 H  s                  4     -0.203462  1 N  py         

 Vector   12  Occ=0.000000D+00  E= 2.209735D-01  Symmetry=a1
              MO Center=  2.1D-14,  1.8D-14, -3.6D-01, r^2= 4.7D+00
   Bfn.  Coefficient  Atom+Function         Bfn.  Coefficient  Atom+Function  
  ----- ------------  ---------------      ----- ------------  ---------------
    10      2.741933  1 N  s                 21     -1.836063  2 H  s          
    23     -1.836063  3 H  s                 25     -1.836063  4 H  s          
     6      1.807617  1 N  s                  9     -0.665403  1 N  pz         
    13     -0.505090  1 N  pz                 5     -0.195329  1 N  pz         

 Vector   13  Occ=0.000000D+00  E= 8.064294D-01  Symmetry=e
              MO Center= -1.3D-02, -8.2D-02,  1.8D-01, r^2= 2.1D+00
   Bfn.  Coefficient  Atom+Function         Bfn.  Coefficient  Atom+Function  
  ----- ------------  ---------------      ----- ------------  ---------------
     7      1.585837  1 N  px                 3     -0.865297  1 N  px         
     8      0.809133  1 N  py                11     -0.473491  1 N  px         
     4     -0.441496  1 N  py                21     -0.426301  2 H  s          
    25      0.332880  4 H  s                 12     -0.241586  1 N  py         
    20     -0.177868  2 H  s          

 Vector   14  Occ=0.000000D+00  E= 8.064294D-01  Symmetry=e
              MO Center=  1.3D-02,  8.2D-02,  1.8D-01, r^2= 2.1D+00
   Bfn.  Coefficient  Atom+Function         Bfn.  Coefficient  Atom+Function  
  ----- ------------  ---------------      ----- ------------  ---------------
     8      1.585837  1 N  py                 4     -0.865297  1 N  py         
     7     -0.809133  1 N  px                12     -0.473491  1 N  py         
     3      0.441496  1 N  px                23      0.438313  3 H  s          
    25     -0.300061  4 H  s                 11      0.241586  1 N  px         
    22      0.182880  3 H  s          

 Vector   15  Occ=0.000000D+00  E= 8.380269D-01  Symmetry=a1
              MO Center=  3.9D-15,  1.3D-15,  2.1D-01, r^2= 2.2D+00
   Bfn.  Coefficient  Atom+Function         Bfn.  Coefficient  Atom+Function  
  ----- ------------  ---------------      ----- ------------  ---------------
     9      1.641333  1 N  pz                 5     -1.016267  1 N  pz         
     6     -0.693840  1 N  s                 10     -0.578281  1 N  s          
    13     -0.537944  1 N  pz                21      0.490744  2 H  s          
    23      0.490744  3 H  s                 25      0.490744  4 H  s          


 center of mass
 --------------
 x =   0.00000000 y =   0.00000000 z =   0.09565961

 moments of inertia (a.u.)
 ------------------
           6.275803910907          -0.000000000000           0.000000000000
          -0.000000000000           6.275803910907           0.000000000000
           0.000000000000           0.000000000000          10.067137870000

     Multipole analysis of the density
     ---------------------------------

     L   x y z        total         alpha         beta         nuclear
     -   - - -        -----         -----         ----         -------
     0   0 0 0     -0.000000     -5.000000     -5.000000     10.000000

     1   1 0 0     -0.000000     -0.000000     -0.000000      0.000000
     1   0 1 0     -0.000000     -0.000000     -0.000000      0.000000
     1   0 0 1     -0.705732     -0.398508     -0.398508      0.091283

     2   2 0 0     -4.721932     -4.858209     -4.858209      4.994487
     2   1 1 0      0.000000      0.000000      0.000000      0.000000
     2   1 0 1     -0.000000     -0.000000     -0.000000      0.000000
     2   0 2 0     -4.721932     -4.858209     -4.858209      4.994487
     2   0 1 1      0.000000      0.000000      0.000000      0.000000
     2   0 0 2     -7.480812     -4.265376     -4.265376      1.049941


 Parallel integral file used       1 records with       0 large values

 Line search: 
     step= 1.00 grad=-1.5D-02 hess= 5.8D-03 energy=    -56.479863 mode=downhill
 new step= 1.30                   predicted energy=    -56.480371

          --------
          Step   1
          --------


                         Geometry "geometry" -> "geometry"
                         ---------------------------------

 Output coordinates in angstroms (scale by  1.889725989 to convert to a.u.)

  No.       Tag          Charge          X              Y              Z
 ---- ---------------- ---------- -------------- -------------- --------------
    1 N                    7.0000     0.00000000     0.00000000     0.11942376
    2 H                    1.0000     0.66973635     0.66973635    -0.25778271
    3 H                    1.0000     0.24514052    -0.91487686    -0.25778271
    4 H                    1.0000    -0.91487686     0.24514052    -0.25778271

      Atomic Mass 
      ----------- 

      N                 14.003070
      H                  1.007825


 Effective nuclear repulsion energy (a.u.)      11.8678842006

            Nuclear Dipole moment (a.u.) 
            ----------------------------
        X                 Y               Z
 ---------------- ---------------- ----------------
     0.0000000000     0.0000000000     0.1183312456

      Symmetry information
      --------------------

 Group name             C3v       
 Group number             17
 Group order               6
 No. of unique centers     2

      Symmetry unique atoms

     1    2


                                 NWChem DFT Module
                                 -----------------


                                 H3N1 dft optimize


  Caching 1-el integrals 
  Rotation of axis 

            General Information
            -------------------
          SCF calculation type: DFT
          Wavefunction type:  closed shell.
          No. of atoms     :     4
          No. of electrons :    10
           Alpha electrons :     5
            Beta electrons :     5
          Charge           :     0
          Spin multiplicity:     1
          Use of symmetry is: on ; symmetry adaption is: on 
          Maximum number of iterations:  30
          AO basis - number of functions:    25
                     number of shells:    14
          Convergence on energy requested: 1.00D-06
          Convergence on density requested: 1.00D-05
          Convergence on gradient requested: 5.00D-04

              XC Information
              --------------
          PerdewBurkeErnzerhof Exchange Functional  1.000          
            Perdew 1991 LDA Correlation Functional  1.000 local    
           PerdewBurkeErnz. Correlation Functional  1.000 non-local

             Grid Information
             ----------------
          Grid used for XC integration:  medium    
          Radial quadrature: Mura-Knowles        
          Angular quadrature: Lebedev. 
          Tag              B.-S. Rad. Rad. Pts. Rad. Cut. Ang. Pts.
          ---              ---------- --------- --------- ---------
          N                   0.65       49           6.0       434
          H                   0.35       45           7.0       434
          Grid pruning is: on 
          Number of quadrature shells:    94
          Spatial weights used:  Erf1

          Convergence Information
          -----------------------
          Convergence aids based upon iterative change in 
          total energy or number of iterations. 
          Levelshifting, if invoked, occurs when the 
          HOMO/LUMO gap drops below (HL_TOL): 1.00D-02
          DIIS, if invoked, will attempt to extrapolate 
          using up to (NFOCK): 10 stored Fock matrices.

                    Damping( 0%)  Levelshifting(0.5)       DIIS
                  --------------- ------------------- ---------------
          dE  on:    start            ASAP                start   
          dE off:    2 iters         30 iters            30 iters 


      Screening Tolerance Information
      -------------------------------
          Density screening/tol_rho: 1.00D-10
          AO Gaussian exp screening on grid/accAOfunc:  14
          CD Gaussian exp screening on grid/accCDfunc:  20
          XC Gaussian exp screening on grid/accXCfunc:  20
          Schwarz screening/accCoul: 1.00D-08


 Loading old vectors from job with title :

H3N1 dft optimize


      Symmetry analysis of molecular orbitals - initial
      -------------------------------------------------

  Numbering of irreducible representations: 

     1 a1          2 a2          3 e       

  Orbital symmetries:

     1 a1          2 a1          3 e           4 e           5 a1      
     6 a1          7 e           8 e           9 a1         10 e       
    11 e          12 a1         13 e          14 e          15 a1      

   Time after variat. SCF:      1.2
   Time prior to 1st pass:      1.2

 #quartets = 2.175D+03 #integrals = 1.621D+04 #direct =  0.0% #cached =100.0%


 Integral file          = ./NH3.aoints.0
 Record size in doubles =  65536        No. of integs per rec  =  43688
 Max. records in memory =      2        Max. records in file   = 184749
 No. of bits per label  =      8        No. of bits per value  =     64


 Grid_pts file          = ./NH3.gridpts.0
 Record size in doubles =  12289        No. of grid_pts per rec  =   3070
 Max. records in memory =     16        Max. recs in file   =    985255


           Memory utilization after 1st SCF pass: 
           Heap Space remaining (MW):       32.44            32438492
          Stack Space remaining (MW):       32.77            32767739

   convergence    iter        energy       DeltaE   RMS-Dens  Diis-err    time
 ---------------- ----- ----------------- --------- --------- ---------  ------
 d= 0,ls=0.0,diis     1    -56.4798875262 -6.83D+01  1.70D-03  1.22D-03     1.3
 d= 0,ls=0.0,diis     2    -56.4798114954  7.60D-05  1.02D-03  2.16D-03     1.4
 d= 0,ls=0.0,diis     3    -56.4800370091 -2.26D-04  2.45D-04  1.05D-04     1.4
 d= 0,ls=0.0,diis     4    -56.4800480940 -1.11D-05  4.59D-05  1.30D-06     1.5
 d= 0,ls=0.0,diis     5    -56.4800482402 -1.46D-07  2.17D-06  6.00D-09     1.5


         Total DFT energy =      -56.480048240217
      One electron energy =      -99.380532176639
           Coulomb energy =       38.950778287229
    Exchange-Corr. energy =       -7.918178551416
 Nuclear repulsion energy =       11.867884200610

 Numeric. integr. density =        9.999999963507

     Total iterative time =      0.4s



                  Occupations of the irreducible representations
                  ----------------------------------------------

                     irrep           alpha         beta
                     --------     --------     --------
                     a1                3.0          3.0
                     a2                0.0          0.0
                     e                 2.0          2.0


                       DFT Final Molecular Orbital Analysis
                       ------------------------------------

 Vector    1  Occ=2.000000D+00  E=-1.399222D+01  Symmetry=a1
              MO Center= -9.0D-19, -2.6D-18,  1.2D-01, r^2= 2.0D-02
   Bfn.  Coefficient  Atom+Function         Bfn.  Coefficient  Atom+Function  
  ----- ------------  ---------------      ----- ------------  ---------------
     1      0.992330  1 N  s          

 Vector    2  Occ=2.000000D+00  E=-7.807025D-01  Symmetry=a1
              MO Center= -6.9D-18,  2.2D-19, -8.7D-02, r^2= 6.9D-01
   Bfn.  Coefficient  Atom+Function         Bfn.  Coefficient  Atom+Function  
  ----- ------------  ---------------      ----- ------------  ---------------
     6      0.453959  1 N  s                  2      0.415094  1 N  s          
     1     -0.200006  1 N  s          

 Vector    3  Occ=2.000000D+00  E=-4.178951D-01  Symmetry=e
              MO Center= -1.4D-01,  1.3D-01, -4.5D-02, r^2= 9.8D-01
   Bfn.  Coefficient  Atom+Function         Bfn.  Coefficient  Atom+Function  
  ----- ------------  ---------------      ----- ------------  ---------------
     3      0.487576  1 N  px                24     -0.274874  4 H  s          
     7      0.248404  1 N  px                20      0.195051  2 H  s          
    25     -0.157719  4 H  s          

 Vector    4  Occ=2.000000D+00  E=-4.178951D-01  Symmetry=e
              MO Center=  1.4D-01, -1.3D-01, -4.5D-02, r^2= 9.8D-01
   Bfn.  Coefficient  Atom+Function         Bfn.  Coefficient  Atom+Function  
  ----- ------------  ---------------      ----- ------------  ---------------
     4      0.487576  1 N  py                22     -0.271311  3 H  s          
     8      0.248404  1 N  py                20      0.204784  2 H  s          
    23     -0.155675  3 H  s          

 Vector    5  Occ=2.000000D+00  E=-2.200635D-01  Symmetry=a1
              MO Center= -4.5D-17,  2.0D-16,  2.8D-01, r^2= 1.0D+00
   Bfn.  Coefficient  Atom+Function         Bfn.  Coefficient  Atom+Function  
  ----- ------------  ---------------      ----- ------------  ---------------
     5      0.551838  1 N  pz                 9      0.415645  1 N  pz         
     6      0.230166  1 N  s                  2      0.167096  1 N  s          
    13      0.154958  1 N  pz         

 Vector    6  Occ=0.000000D+00  E= 1.833982D-03  Symmetry=a1
              MO Center= -2.9D-16,  2.1D-16, -6.2D-01, r^2= 4.4D+00
   Bfn.  Coefficient  Atom+Function         Bfn.  Coefficient  Atom+Function  
  ----- ------------  ---------------      ----- ------------  ---------------
    10      1.453175  1 N  s                  6     -0.835399  1 N  s          
    13     -0.390569  1 N  pz                 5      0.183236  1 N  pz         
     2     -0.179054  1 N  s          

 Vector    7  Occ=0.000000D+00  E= 7.800455D-02  Symmetry=e
              MO Center=  1.4D-03,  1.2D-02,  1.1D-01, r^2= 6.2D+00
   Bfn.  Coefficient  Atom+Function         Bfn.  Coefficient  Atom+Function  
  ----- ------------  ---------------      ----- ------------  ---------------
    11      1.047085  1 N  px                12      0.508986  1 N  py         
     7     -0.387774  1 N  px                 3     -0.253655  1 N  px         
     8     -0.188496  1 N  py         

 Vector    8  Occ=0.000000D+00  E= 7.800455D-02  Symmetry=e
              MO Center= -1.4D-03, -1.2D-02,  1.1D-01, r^2= 6.2D+00
   Bfn.  Coefficient  Atom+Function         Bfn.  Coefficient  Atom+Function  
  ----- ------------  ---------------      ----- ------------  ---------------
    12      1.047085  1 N  py                11     -0.508986  1 N  px         
     8     -0.387774  1 N  py                 4     -0.253655  1 N  py         
     7      0.188496  1 N  px         

 Vector    9  Occ=0.000000D+00  E= 1.073025D-01  Symmetry=a1
              MO Center=  7.5D-16,  6.5D-16,  6.8D-01, r^2= 5.9D+00
   Bfn.  Coefficient  Atom+Function         Bfn.  Coefficient  Atom+Function  
  ----- ------------  ---------------      ----- ------------  ---------------
    13      1.196979  1 N  pz                 6     -0.673009  1 N  s          
     9     -0.335200  1 N  pz                21      0.264287  2 H  s          
    23      0.264287  3 H  s                 25      0.264287  4 H  s          
     5     -0.231954  1 N  pz                10      0.153852  1 N  s          

 Vector   10  Occ=0.000000D+00  E= 1.669692D-01  Symmetry=e
              MO Center=  2.9D-02, -1.4D-01, -2.1D-03, r^2= 3.4D+00
   Bfn.  Coefficient  Atom+Function         Bfn.  Coefficient  Atom+Function  
  ----- ------------  ---------------      ----- ------------  ---------------
    23      1.964286  3 H  s                 25     -1.034303  4 H  s          
    21     -0.929983  2 H  s                  8      0.923350  1 N  py         
    12      0.856160  1 N  py                 4      0.311324  1 N  py         
     7     -0.278007  1 N  px                11     -0.257777  1 N  px         
    22      0.211773  3 H  s          

 Vector   11  Occ=0.000000D+00  E= 1.669692D-01  Symmetry=e
              MO Center= -2.9D-02,  1.4D-01, -2.1D-03, r^2= 3.4D+00
   Bfn.  Coefficient  Atom+Function         Bfn.  Coefficient  Atom+Function  
  ----- ------------  ---------------      ----- ------------  ---------------
    21      1.731236  2 H  s                 25     -1.671007  4 H  s          
     7     -0.923350  1 N  px                11     -0.856160  1 N  px         
     3     -0.311324  1 N  px                 8     -0.278007  1 N  py         
    12     -0.257777  1 N  py                20      0.186648  2 H  s          
    24     -0.180154  4 H  s          

 Vector   12  Occ=0.000000D+00  E= 2.292583D-01  Symmetry=a1
              MO Center= -6.5D-15,  4.4D-15, -3.9D-01, r^2= 4.7D+00
   Bfn.  Coefficient  Atom+Function         Bfn.  Coefficient  Atom+Function  
  ----- ------------  ---------------      ----- ------------  ---------------
    10      2.760386  1 N  s                  6      1.957189  1 N  s          
    21     -1.898454  2 H  s                 23     -1.898454  3 H  s          
    25     -1.898454  4 H  s                  9     -0.696807  1 N  pz         
    13     -0.534648  1 N  pz                 5     -0.197619  1 N  pz         

 Vector   13  Occ=0.000000D+00  E= 8.042228D-01  Symmetry=e
              MO Center= -1.0D-01,  2.1D-02,  2.0D-01, r^2= 2.2D+00
   Bfn.  Coefficient  Atom+Function         Bfn.  Coefficient  Atom+Function  
  ----- ------------  ---------------      ----- ------------  ---------------
     8      1.675955  1 N  py                 4     -0.881788  1 N  py         
    12     -0.582882  1 N  py                 7      0.502838  1 N  px         
     3     -0.264564  1 N  px                20     -0.251392  2 H  s          
    22      0.242918  3 H  s                 21     -0.230735  2 H  s          
    23      0.222957  3 H  s                 11     -0.174883  1 N  px         

 Vector   14  Occ=0.000000D+00  E= 8.042228D-01  Symmetry=e
              MO Center=  1.0D-01, -2.1D-02,  2.0D-01, r^2= 2.2D+00
   Bfn.  Coefficient  Atom+Function         Bfn.  Coefficient  Atom+Function  
  ----- ------------  ---------------      ----- ------------  ---------------
     7      1.675955  1 N  px                 3     -0.881788  1 N  px         
    11     -0.582882  1 N  px                 8     -0.502838  1 N  py         
    24      0.285390  4 H  s                  4      0.264564  1 N  py         
    25      0.261939  4 H  s                 12      0.174883  1 N  py         
    22     -0.150034  3 H  s          

 Vector   15  Occ=0.000000D+00  E= 8.395268D-01  Symmetry=a1
              MO Center= -2.7D-15,  1.1D-15,  2.3D-01, r^2= 2.2D+00
   Bfn.  Coefficient  Atom+Function         Bfn.  Coefficient  Atom+Function  
  ----- ------------  ---------------      ----- ------------  ---------------
     9      1.654804  1 N  pz                 5     -1.012596  1 N  pz         
     6     -0.687016  1 N  s                 10     -0.577690  1 N  s          
    13     -0.540850  1 N  pz                21      0.484196  2 H  s          
    23      0.484196  3 H  s                 25      0.484196  4 H  s          


 center of mass
 --------------
 x =   0.00000000 y =   0.00000000 z =   0.09910030

 moments of inertia (a.u.)
 ------------------
           6.106423008647           0.000000000000           0.000000000000
           0.000000000000           6.106423008647           0.000000000000
           0.000000000000           0.000000000000           9.685940238684

     Multipole analysis of the density
     ---------------------------------

     L   x y z        total         alpha         beta         nuclear
     -   - - -        -----         -----         ----         -------
     0   0 0 0     -0.000000     -5.000000     -5.000000     10.000000

     1   1 0 0      0.000000      0.000000      0.000000      0.000000
     1   0 1 0     -0.000000     -0.000000     -0.000000      0.000000
     1   0 0 1     -0.723026     -0.420679     -0.420679      0.118331

     2   2 0 0     -4.736613     -4.770991     -4.770991      4.805368
     2   1 1 0      0.000000      0.000000      0.000000      0.000000
     2   1 0 1     -0.000000     -0.000000     -0.000000     -0.000000
     2   0 2 0     -4.736613     -4.770991     -4.770991      4.805368
     2   0 1 1      0.000000      0.000000      0.000000     -0.000000
     2   0 0 2     -7.417223     -4.242825     -4.242825      1.068427


 Parallel integral file used       1 records with       0 large values



                            NWChem DFT Gradient Module
                            --------------------------


                                 H3N1 dft optimize



  charge          =   0.00
  wavefunction    = closed shell

  Rotation of axis 
  Using symmetry


                         DFT ENERGY GRADIENTS

    atom               coordinates                        gradient
                 x          y          z           x          y          z
   1 N       0.000000   0.000000   0.225678    0.000000   0.000000  -0.004695
   2 H       1.265618   1.265618  -0.487139   -0.003401  -0.003401   0.001565
   3 H       0.463248  -1.728867  -0.487139   -0.001245   0.004646   0.001565
   4 H      -1.728867   0.463248  -0.487139    0.004646  -0.001245   0.001565

                 ----------------------------------------
                 |  Time  |  1-e(secs)   |  2-e(secs)   |
                 ----------------------------------------
                 |  CPU   |       0.00   |       0.04   |
                 ----------------------------------------
                 |  WALL  |       0.00   |       0.04   |
                 ----------------------------------------

  Step       Energy      Delta E   Gmax     Grms     Xrms     Xmax   Walltime
  ---- ---------------- -------- -------- -------- -------- -------- --------
@    1     -56.48004824 -9.4D-03  0.00470  0.00287  0.07658  0.14740      1.9
                                                                    


                                 NWChem DFT Module
                                 -----------------


                                 H3N1 dft optimize


  Caching 1-el integrals 
  Rotation of axis 

            General Information
            -------------------
          SCF calculation type: DFT
          Wavefunction type:  closed shell.
          No. of atoms     :     4
          No. of electrons :    10
           Alpha electrons :     5
            Beta electrons :     5
          Charge           :     0
          Spin multiplicity:     1
          Use of symmetry is: on ; symmetry adaption is: on 
          Maximum number of iterations:  30
          AO basis - number of functions:    25
                     number of shells:    14
          Convergence on energy requested: 1.00D-06
          Convergence on density requested: 1.00D-05
          Convergence on gradient requested: 5.00D-04

              XC Information
              --------------
          PerdewBurkeErnzerhof Exchange Functional  1.000          
            Perdew 1991 LDA Correlation Functional  1.000 local    
           PerdewBurkeErnz. Correlation Functional  1.000 non-local

             Grid Information
             ----------------
          Grid used for XC integration:  medium    
          Radial quadrature: Mura-Knowles        
          Angular quadrature: Lebedev. 
          Tag              B.-S. Rad. Rad. Pts. Rad. Cut. Ang. Pts.
          ---              ---------- --------- --------- ---------
          N                   0.65       49           6.0       434
          H                   0.35       45           7.0       434
          Grid pruning is: on 
          Number of quadrature shells:    94
          Spatial weights used:  Erf1

          Convergence Information
          -----------------------
          Convergence aids based upon iterative change in 
          total energy or number of iterations. 
          Levelshifting, if invoked, occurs when the 
          HOMO/LUMO gap drops below (HL_TOL): 1.00D-02
          DIIS, if invoked, will attempt to extrapolate 
          using up to (NFOCK): 10 stored Fock matrices.

                    Damping( 0%)  Levelshifting(0.5)       DIIS
                  --------------- ------------------- ---------------
          dE  on:    start            ASAP                start   
          dE off:    2 iters         30 iters            30 iters 


      Screening Tolerance Information
      -------------------------------
          Density screening/tol_rho: 1.00D-10
          AO Gaussian exp screening on grid/accAOfunc:  14
          CD Gaussian exp screening on grid/accCDfunc:  20
          XC Gaussian exp screening on grid/accXCfunc:  20
          Schwarz screening/accCoul: 1.00D-08


 Loading old vectors from job with title :

H3N1 dft optimize


      Symmetry analysis of molecular orbitals - initial
      -------------------------------------------------

  Numbering of irreducible representations: 

     1 a1          2 a2          3 e       

  Orbital symmetries:

     1 a1          2 a1          3 e           4 e           5 a1      
     6 a1          7 e           8 e           9 a1         10 e       
    11 e          12 a1         13 e          14 e          15 a1      

   Time after variat. SCF:      1.7
   Time prior to 1st pass:      1.7

 #quartets = 2.175D+03 #integrals = 1.621D+04 #direct =  0.0% #cached =100.0%


 Integral file          = ./NH3.aoints.0
 Record size in doubles =  65536        No. of integs per rec  =  43688
 Max. records in memory =      2        Max. records in file   = 184749
 No. of bits per label  =      8        No. of bits per value  =     64


 Grid_pts file          = ./NH3.gridpts.0
 Record size in doubles =  12289        No. of grid_pts per rec  =   3070
 Max. records in memory =     16        Max. recs in file   =    985255


           Memory utilization after 1st SCF pass: 
           Heap Space remaining (MW):       32.44            32438492
          Stack Space remaining (MW):       32.77            32767739

   convergence    iter        energy       DeltaE   RMS-Dens  Diis-err    time
 ---------------- ----- ----------------- --------- --------- ---------  ------
 d= 0,ls=0.0,diis     1    -56.4800842852 -6.83D+01  1.06D-03  2.90D-04     1.8
 d= 0,ls=0.0,diis     2    -56.4800586809  2.56D-05  5.30D-04  6.50D-04     1.9
 d= 0,ls=0.0,diis     3    -56.4801291476 -7.05D-05  8.81D-05  1.34D-05     1.9
 d= 0,ls=0.0,diis     4    -56.4801305210 -1.37D-06  2.27D-05  2.96D-07     2.0
 d= 0,ls=0.0,diis     5    -56.4801305542 -3.31D-08  1.38D-06  1.76D-09     2.1


         Total DFT energy =      -56.480130554175
      One electron energy =      -99.216586745278
           Coulomb energy =       38.866894105897
    Exchange-Corr. energy =       -7.908548108215
 Nuclear repulsion energy =       11.778110193421

 Numeric. integr. density =       10.000000074105

     Total iterative time =      0.4s



                  Occupations of the irreducible representations
                  ----------------------------------------------

                     irrep           alpha         beta
                     --------     --------     --------
                     a1                3.0          3.0
                     a2                0.0          0.0
                     e                 2.0          2.0


                       DFT Final Molecular Orbital Analysis
                       ------------------------------------

 Vector    1  Occ=2.000000D+00  E=-1.399460D+01  Symmetry=a1
              MO Center= -1.6D-19, -9.2D-19,  1.2D-01, r^2= 2.0D-02
   Bfn.  Coefficient  Atom+Function         Bfn.  Coefficient  Atom+Function  
  ----- ------------  ---------------      ----- ------------  ---------------
     1      0.992342  1 N  s          

 Vector    2  Occ=2.000000D+00  E=-7.780146D-01  Symmetry=a1
              MO Center=  2.0D-17,  2.5D-17, -8.4D-02, r^2= 7.0D-01
   Bfn.  Coefficient  Atom+Function         Bfn.  Coefficient  Atom+Function  
  ----- ------------  ---------------      ----- ------------  ---------------
     6      0.456424  1 N  s                  2      0.415077  1 N  s          
     1     -0.199939  1 N  s          

 Vector    3  Occ=2.000000D+00  E=-4.157791D-01  Symmetry=e
              MO Center= -7.4D-02,  1.8D-01, -4.4D-02, r^2= 9.9D-01
   Bfn.  Coefficient  Atom+Function         Bfn.  Coefficient  Atom+Function  
  ----- ------------  ---------------      ----- ------------  ---------------
     3      0.477098  1 N  px                24     -0.253072  4 H  s          
     7      0.244413  1 N  px                20      0.234866  2 H  s          

 Vector    4  Occ=2.000000D+00  E=-4.157791D-01  Symmetry=e
              MO Center=  7.4D-02, -1.8D-01, -4.4D-02, r^2= 9.9D-01
   Bfn.  Coefficient  Atom+Function         Bfn.  Coefficient  Atom+Function  
  ----- ------------  ---------------      ----- ------------  ---------------
     4      0.477098  1 N  py                22     -0.281711  3 H  s          
     8      0.244413  1 N  py                23     -0.164051  3 H  s          
    20      0.156623  2 H  s          

 Vector    5  Occ=2.000000D+00  E=-2.203435D-01  Symmetry=a1
              MO Center= -1.0D-16, -7.9D-17,  2.8D-01, r^2= 1.0D+00
   Bfn.  Coefficient  Atom+Function         Bfn.  Coefficient  Atom+Function  
  ----- ------------  ---------------      ----- ------------  ---------------
     5      0.550815  1 N  pz                 9      0.413946  1 N  pz         
     6      0.234551  1 N  s                  2      0.168346  1 N  s          
    13      0.155267  1 N  pz         

 Vector    6  Occ=0.000000D+00  E= 8.712958D-04  Symmetry=a1
              MO Center= -3.5D-18, -6.9D-18, -6.1D-01, r^2= 4.4D+00
   Bfn.  Coefficient  Atom+Function         Bfn.  Coefficient  Atom+Function  
  ----- ------------  ---------------      ----- ------------  ---------------
    10      1.436917  1 N  s                  6     -0.851253  1 N  s          
    13     -0.386358  1 N  pz                 5      0.186893  1 N  pz         
     2     -0.179232  1 N  s                  9      0.154322  1 N  pz         

 Vector    7  Occ=0.000000D+00  E= 7.775503D-02  Symmetry=e
              MO Center= -2.1D-02, -1.6D-04,  1.1D-01, r^2= 6.2D+00
   Bfn.  Coefficient  Atom+Function         Bfn.  Coefficient  Atom+Function  
  ----- ------------  ---------------      ----- ------------  ---------------
    11      1.065002  1 N  px                12     -0.446042  1 N  py         
     7     -0.409515  1 N  px                 3     -0.265366  1 N  px         
     8      0.171512  1 N  py         

 Vector    8  Occ=0.000000D+00  E= 7.775503D-02  Symmetry=e
              MO Center=  2.1D-02,  1.6D-04,  1.1D-01, r^2= 6.2D+00
   Bfn.  Coefficient  Atom+Function         Bfn.  Coefficient  Atom+Function  
  ----- ------------  ---------------      ----- ------------  ---------------
    12      1.065002  1 N  py                11      0.446042  1 N  px         
     8     -0.409515  1 N  py                 4     -0.265366  1 N  py         
     7     -0.171512  1 N  px         

 Vector    9  Occ=0.000000D+00  E= 1.071388D-01  Symmetry=a1
              MO Center=  1.2D-15, -7.4D-16,  6.7D-01, r^2= 5.9D+00
   Bfn.  Coefficient  Atom+Function         Bfn.  Coefficient  Atom+Function  
  ----- ------------  ---------------      ----- ------------  ---------------
    13      1.200846  1 N  pz                 6     -0.674992  1 N  s          
     9     -0.331829  1 N  pz                21      0.271968  2 H  s          
    23      0.271968  3 H  s                 25      0.271968  4 H  s          
     5     -0.231006  1 N  pz         

 Vector   10  Occ=0.000000D+00  E= 1.637427D-01  Symmetry=e
              MO Center= -1.0D-01, -8.7D-02,  9.9D-03, r^2= 3.4D+00
   Bfn.  Coefficient  Atom+Function         Bfn.  Coefficient  Atom+Function  
  ----- ------------  ---------------      ----- ------------  ---------------
    25     -1.717201  4 H  s                 23      1.629472  3 H  s          
     7     -0.696244  1 N  px                11     -0.668504  1 N  px         
     8      0.635766  1 N  py                12      0.610435  1 N  py         
     3     -0.239235  1 N  px                 4      0.218454  1 N  py         
    24     -0.189285  4 H  s                 22      0.179615  3 H  s          

 Vector   11  Occ=0.000000D+00  E= 1.637427D-01  Symmetry=e
              MO Center=  1.0D-01,  8.7D-02,  9.9D-03, r^2= 3.4D+00
   Bfn.  Coefficient  Atom+Function         Bfn.  Coefficient  Atom+Function  
  ----- ------------  ---------------      ----- ------------  ---------------
    21      1.932202  2 H  s                 23     -1.042077  3 H  s          
    25     -0.890125  4 H  s                  8     -0.696244  1 N  py         
    12     -0.668504  1 N  py                 7     -0.635766  1 N  px         
    11     -0.610435  1 N  px                 4     -0.239235  1 N  py         
     3     -0.218454  1 N  px                20      0.212985  2 H  s          

 Vector   12  Occ=0.000000D+00  E= 2.266541D-01  Symmetry=a1
              MO Center=  9.5D-15, -6.5D-15, -3.9D-01, r^2= 4.7D+00
   Bfn.  Coefficient  Atom+Function         Bfn.  Coefficient  Atom+Function  
  ----- ------------  ---------------      ----- ------------  ---------------
    10      2.764676  1 N  s                  6      1.893941  1 N  s          
    21     -1.879423  2 H  s                 23     -1.879423  3 H  s          
    25     -1.879423  4 H  s                  9     -0.694472  1 N  pz         
    13     -0.537011  1 N  pz                 5     -0.200099  1 N  pz         

 Vector   13  Occ=0.000000D+00  E= 8.056441D-01  Symmetry=e
              MO Center=  6.2D-02, -7.3D-02,  2.0D-01, r^2= 2.2D+00
   Bfn.  Coefficient  Atom+Function         Bfn.  Coefficient  Atom+Function  
  ----- ------------  ---------------      ----- ------------  ---------------
     7      1.760995  1 N  px                 3     -0.943638  1 N  px         
    11     -0.576974  1 N  px                25      0.324044  4 H  s          
    21     -0.249440  2 H  s                 24      0.231874  4 H  s          
    20     -0.178489  2 H  s          

 Vector   14  Occ=0.000000D+00  E= 8.056441D-01  Symmetry=e
              MO Center= -6.2D-02,  7.3D-02,  2.0D-01, r^2= 2.2D+00
   Bfn.  Coefficient  Atom+Function         Bfn.  Coefficient  Atom+Function  
  ----- ------------  ---------------      ----- ------------  ---------------
     8      1.760995  1 N  py                 4     -0.943638  1 N  py         
    12     -0.576974  1 N  py                23      0.331101  3 H  s          
    22      0.236923  3 H  s                 21     -0.230160  2 H  s          
    20     -0.164694  2 H  s          

 Vector   15  Occ=0.000000D+00  E= 8.395394D-01  Symmetry=a1
              MO Center=  3.5D-17,  5.7D-17,  2.4D-01, r^2= 2.2D+00
   Bfn.  Coefficient  Atom+Function         Bfn.  Coefficient  Atom+Function  
  ----- ------------  ---------------      ----- ------------  ---------------
     9      1.656275  1 N  pz                 5     -1.014608  1 N  pz         
     6     -0.687561  1 N  s                 10     -0.599118  1 N  s          
    13     -0.533293  1 N  pz                21      0.499160  2 H  s          
    23      0.499160  3 H  s                 25      0.499160  4 H  s          


 center of mass
 --------------
 x =   0.00000000 y =   0.00000000 z =   0.10475706

 moments of inertia (a.u.)
 ------------------
           6.207019831073           0.000000000000           0.000000000000
           0.000000000000           6.207019831073           0.000000000000
           0.000000000000           0.000000000000           9.816585198554

     Multipole analysis of the density
     ---------------------------------

     L   x y z        total         alpha         beta         nuclear
     -   - - -        -----         -----         ----         -------
     0   0 0 0     -0.000000     -5.000000     -5.000000     10.000000

     1   1 0 0     -0.000000     -0.000000     -0.000000      0.000000
     1   0 1 0      0.000000      0.000000      0.000000      0.000000
     1   0 0 1     -0.725425     -0.444113     -0.444113      0.162801

     2   2 0 0     -4.743971     -4.807077     -4.807077      4.870183
     2   1 1 0     -0.000000      0.000000      0.000000     -0.000000
     2   1 0 1      0.000000      0.000000      0.000000      0.000000
     2   0 2 0     -4.743971     -4.807077     -4.807077      4.870183
     2   0 1 1      0.000000      0.000000      0.000000     -0.000000
     2   0 0 2     -7.436959     -4.268213     -4.268213      1.099467


 Parallel integral file used       1 records with       0 large values

 Line search: 
     step= 1.00 grad=-2.2D-04 hess= 1.4D-04 energy=    -56.480131 mode=downhill
 new step= 0.80                   predicted energy=    -56.480136

          --------
          Step   2
          --------


                         Geometry "geometry" -> "geometry"
                         ---------------------------------

 Output coordinates in angstroms (scale by  1.889725989 to convert to a.u.)

  No.       Tag          Charge          X              Y              Z
 ---- ---------------- ---------- -------------- -------------- --------------
    1 N                    7.0000    -0.00000000    -0.00000000     0.12255733
    2 H                    1.0000     0.67333298     0.67333298    -0.25882723
    3 H                    1.0000     0.24645698    -0.91978996    -0.25882723
    4 H                    1.0000    -0.91978996     0.24645698    -0.25882723

      Atomic Mass 
      ----------- 

      N                 14.003070
      H                  1.007825


 Effective nuclear repulsion energy (a.u.)      11.7960535195

            Nuclear Dipole moment (a.u.) 
            ----------------------------
        X                 Y               Z
 ---------------- ---------------- ----------------
     0.0000000000     0.0000000000     0.1538607419

      Symmetry information
      --------------------

 Group name             C3v       
 Group number             17
 Group order               6
 No. of unique centers     2

      Symmetry unique atoms

     1    2


                                 NWChem DFT Module
                                 -----------------


                                 H3N1 dft optimize


  Caching 1-el integrals 
  Rotation of axis 

            General Information
            -------------------
          SCF calculation type: DFT
          Wavefunction type:  closed shell.
          No. of atoms     :     4
          No. of electrons :    10
           Alpha electrons :     5
            Beta electrons :     5
          Charge           :     0
          Spin multiplicity:     1
          Use of symmetry is: on ; symmetry adaption is: on 
          Maximum number of iterations:  30
          AO basis - number of functions:    25
                     number of shells:    14
          Convergence on energy requested: 1.00D-06
          Convergence on density requested: 1.00D-05
          Convergence on gradient requested: 5.00D-04

              XC Information
              --------------
          PerdewBurkeErnzerhof Exchange Functional  1.000          
            Perdew 1991 LDA Correlation Functional  1.000 local    
           PerdewBurkeErnz. Correlation Functional  1.000 non-local

             Grid Information
             ----------------
          Grid used for XC integration:  medium    
          Radial quadrature: Mura-Knowles        
          Angular quadrature: Lebedev. 
          Tag              B.-S. Rad. Rad. Pts. Rad. Cut. Ang. Pts.
          ---              ---------- --------- --------- ---------
          N                   0.65       49           6.0       434
          H                   0.35       45           7.0       434
          Grid pruning is: on 
          Number of quadrature shells:    94
          Spatial weights used:  Erf1

          Convergence Information
          -----------------------
          Convergence aids based upon iterative change in 
          total energy or number of iterations. 
          Levelshifting, if invoked, occurs when the 
          HOMO/LUMO gap drops below (HL_TOL): 1.00D-02
          DIIS, if invoked, will attempt to extrapolate 
          using up to (NFOCK): 10 stored Fock matrices.

                    Damping( 0%)  Levelshifting(0.5)       DIIS
                  --------------- ------------------- ---------------
          dE  on:    start            ASAP                start   
          dE off:    2 iters         30 iters            30 iters 


      Screening Tolerance Information
      -------------------------------
          Density screening/tol_rho: 1.00D-10
          AO Gaussian exp screening on grid/accAOfunc:  14
          CD Gaussian exp screening on grid/accCDfunc:  20
          XC Gaussian exp screening on grid/accXCfunc:  20
          Schwarz screening/accCoul: 1.00D-08


[...]
                                -------------------


                                  H3N1 dft energy
                                  ---------------
  library name resolved from: environment
  library file name is: </Users/chenzheng/Google Drive/nano266/resources/nwchem_basis/>
  
                      Basis "ao basis" -> "" (cartesian)
                      -----
  H (Hydrogen)
  ------------
            Exponent  Coefficients 
       -------------- ---------------------------------------------------------
  1 S  1.87311370E+01  0.033495
  1 S  2.82539370E+00  0.234727
  1 S  6.40121700E-01  0.813757

  2 S  1.61277800E-01  1.000000

  N (Nitrogen)
  ------------
            Exponent  Coefficients 
       -------------- ---------------------------------------------------------
  1 S  4.17351100E+03  0.001835
  1 S  6.27457900E+02  0.013995
  1 S  1.42902100E+02  0.068587
  1 S  4.02343300E+01  0.232241
  1 S  1.28202100E+01  0.469070
  1 S  4.39043700E+00  0.360455

  2 S  1.16263580E+01 -0.114961
  2 S  2.71628000E+00 -0.169118
  2 S  7.72218000E-01  1.145852

  3 P  1.16263580E+01  0.067580
  3 P  2.71628000E+00  0.323907
  3 P  7.72218000E-01  0.740895

  4 S  2.12031300E-01  1.000000

  5 P  2.12031300E-01  1.000000

  6 S  6.39000000E-02  1.000000

  7 P  6.39000000E-02  1.000000

  8 D  8.00000000E-01  1.000000



 Summary of "ao basis" -> "" (cartesian)
 ------------------------------------------------------------------------------
       Tag                 Description            Shells   Functions and Types
 ---------------- ------------------------------  ------  ---------------------
 H                          6-31+G*                  2        2   2s
 N                          6-31+G*                  8       19   4s3p1d


  pbe96 is a nonlocal functional; adding pw91lda local functional. 

                                 NWChem DFT Module
                                 -----------------


                                  H3N1 dft energy


  Caching 1-el integrals 
  Rotation of axis 
  itol2e modified to match energy
  convergence criterion.

            General Information
            -------------------
          SCF calculation type: DFT
          Wavefunction type:  closed shell.
          No. of atoms     :     4
          No. of electrons :    10
           Alpha electrons :     5
            Beta electrons :     5
          Charge           :     0
          Spin multiplicity:     1
          Use of symmetry is: on ; symmetry adaption is: on 
          Maximum number of iterations:  30
          AO basis - number of functions:    25
                     number of shells:    14
          Convergence on energy requested: 1.00D-07
          Convergence on density requested: 1.00D-05
          Convergence on gradient requested: 5.00D-04

              XC Information
              --------------
          PerdewBurkeErnzerhof Exchange Functional  1.000          
            Perdew 1991 LDA Correlation Functional  1.000 local    
           PerdewBurkeErnz. Correlation Functional  1.000 non-local

             Grid Information
             ----------------
          Grid used for XC integration:  fine      
          Radial quadrature: Mura-Knowles        
          Angular quadrature: Lebedev. 
          Tag              B.-S. Rad. Rad. Pts. Rad. Cut. Ang. Pts.
          ---              ---------- --------- --------- ---------
          N                   0.65       70           7.0       590
          H                   0.35       60           7.0       590
          Grid pruning is: on 
          Number of quadrature shells:   130
          Spatial weights used:  Erf1

          Convergence Information
          -----------------------
          Convergence aids based upon iterative change in 
          total energy or number of iterations. 
          Levelshifting, if invoked, occurs when the 
          HOMO/LUMO gap drops below (HL_TOL): 1.00D-02
          DIIS, if invoked, will attempt to extrapolate 
          using up to (NFOCK): 10 stored Fock matrices.

                    Damping( 0%)  Levelshifting(0.5)       DIIS
                  --------------- ------------------- ---------------
          dE  on:    start            ASAP                start   
          dE off:    2 iters         30 iters            30 iters 


      Screening Tolerance Information
      -------------------------------
          Density screening/tol_rho: 1.00D-11
          AO Gaussian exp screening on grid/accAOfunc:  16
          CD Gaussian exp screening on grid/accCDfunc:  20
          XC Gaussian exp screening on grid/accXCfunc:  20
          Schwarz screening/accCoul: 1.00D-08


 Loading old vectors from job with title :

H3N1 dft freq


      Symmetry analysis of molecular orbitals - initial
      -------------------------------------------------

  Numbering of irreducible representations: 

     1 a1          2 a2          3 e       

  Orbital symmetries:

     1 a1          2 a1          3 e           4 e           5 a1      
     6 a1          7 e           8 e           9 a1         10 e       
    11 e          12 a1         13 e          14 e          15 a1      

   Time after variat. SCF:     20.9
   Time prior to 1st pass:     20.9

 #quartets = 2.175D+03 #integrals = 1.621D+04 #direct =  0.0% #cached =100.0%


 Integral file          = ./NH3.aoints.0
 Record size in doubles =  65536        No. of integs per rec  =  43688
 Max. records in memory =      2        Max. records in file   = 184747
 No. of bits per label  =      8        No. of bits per value  =     64


 Grid_pts file          = ./NH3.gridpts.0
 Record size in doubles =  12289        No. of grid_pts per rec  =   3070
 Max. records in memory =     29        Max. recs in file   =    985245


           Memory utilization after 1st SCF pass: 
           Heap Space remaining (MW):       32.28            32278767
          Stack Space remaining (MW):       32.77            32767739

   convergence    iter        energy       DeltaE   RMS-Dens  Diis-err    time
 ---------------- ----- ----------------- --------- --------- ---------  ------
 d= 0,ls=0.0,diis     1    -56.4801364527 -6.83D+01  6.36D-08  1.63D-12    21.2
 d= 0,ls=0.0,diis     2    -56.4801362131  2.40D-07  4.36D-08  5.26D-12    21.3
 d= 0,ls=0.0,diis     3    -56.4801362131 -7.96D-13  4.99D-09  7.10D-15    21.4


         Total DFT energy =      -56.480136213063
      One electron energy =      -99.249503314849
           Coulomb energy =       38.883800698304
    Exchange-Corr. energy =       -7.910452835270
 Nuclear repulsion energy =       11.796019238752

 Numeric. integr. density =       10.000000000372

     Total iterative time =      0.5s



                  Occupations of the irreducible representations
                  ----------------------------------------------

                     irrep           alpha         beta
                     --------     --------     --------
                     a1                3.0          3.0
                     a2                0.0          0.0
                     e                 2.0          2.0


                       DFT Final Molecular Orbital Analysis
                       ------------------------------------

 Vector    1  Occ=2.000000D+00  E=-1.399409D+01  Symmetry=a1
              MO Center=  6.4D-22,  8.2D-22,  1.2D-01, r^2= 2.0D-02
   Bfn.  Coefficient  Atom+Function         Bfn.  Coefficient  Atom+Function  
  ----- ------------  ---------------      ----- ------------  ---------------
     1      0.992339  1 N  s          

 Vector    2  Occ=2.000000D+00  E=-7.784680D-01  Symmetry=a1
              MO Center=  1.0D-16,  1.4D-16, -8.4D-02, r^2= 7.0D-01
   Bfn.  Coefficient  Atom+Function         Bfn.  Coefficient  Atom+Function  
  ----- ------------  ---------------      ----- ------------  ---------------
     6      0.455871  1 N  s                  2      0.415147  1 N  s          
     1     -0.199972  1 N  s          

 Vector    3  Occ=2.000000D+00  E=-4.162769D-01  Symmetry=e
              MO Center=  1.2D-01, -1.5D-01, -4.4D-02, r^2= 9.9D-01
   Bfn.  Coefficient  Atom+Function         Bfn.  Coefficient  Atom+Function  
  ----- ------------  ---------------      ----- ------------  ---------------
     4      0.486030  1 N  py                22     -0.276390  3 H  s          
     8      0.248725  1 N  py                20      0.188487  2 H  s          
    23     -0.160315  3 H  s          

 Vector    4  Occ=2.000000D+00  E=-4.162769D-01  Symmetry=e
              MO Center= -1.2D-01,  1.5D-01, -4.4D-02, r^2= 9.9D-01
   Bfn.  Coefficient  Atom+Function         Bfn.  Coefficient  Atom+Function  
  ----- ------------  ---------------      ----- ------------  ---------------
     3      0.486030  1 N  px                24     -0.268397  4 H  s          
     7      0.248725  1 N  px                20      0.210325  2 H  s          
    25     -0.155678  4 H  s          

 Vector    5  Occ=2.000000D+00  E=-2.201584D-01  Symmetry=a1
              MO Center=  6.8D-18,  5.9D-18,  2.8D-01, r^2= 1.0D+00
   Bfn.  Coefficient  Atom+Function         Bfn.  Coefficient  Atom+Function  
  ----- ------------  ---------------      ----- ------------  ---------------
     5      0.551192  1 N  pz                 9      0.414470  1 N  pz         
     6      0.233148  1 N  s                  2      0.167775  1 N  s          
    13      0.155294  1 N  pz         

 Vector    6  Occ=0.000000D+00  E= 1.111359D-03  Symmetry=a1
              MO Center=  5.9D-16,  6.9D-18, -6.1D-01, r^2= 4.4D+00
   Bfn.  Coefficient  Atom+Function         Bfn.  Coefficient  Atom+Function  
  ----- ------------  ---------------      ----- ------------  ---------------
    10      1.439773  1 N  s                  6     -0.849203  1 N  s          
    13     -0.386341  1 N  pz                 5      0.185871  1 N  pz         
     2     -0.179253  1 N  s                  9      0.153016  1 N  pz         

 Vector    7  Occ=0.000000D+00  E= 7.778758D-02  Symmetry=e
              MO Center= -1.9D-02, -2.6D-04,  1.1D-01, r^2= 6.2D+00
   Bfn.  Coefficient  Atom+Function         Bfn.  Coefficient  Atom+Function  
  ----- ------------  ---------------      ----- ------------  ---------------
    11      1.065781  1 N  px                12     -0.450193  1 N  py         
     7     -0.406255  1 N  px                 3     -0.263868  1 N  px         
     8      0.171605  1 N  py         

 Vector    8  Occ=0.000000D+00  E= 7.778758D-02  Symmetry=e
              MO Center=  1.9D-02,  2.6D-04,  1.1D-01, r^2= 6.2D+00
   Bfn.  Coefficient  Atom+Function         Bfn.  Coefficient  Atom+Function  
  ----- ------------  ---------------      ----- ------------  ---------------
    12      1.065781  1 N  py                11      0.450193  1 N  px         
     8     -0.406255  1 N  py                 4     -0.263868  1 N  py         
     7     -0.171605  1 N  px         

 Vector    9  Occ=0.000000D+00  E= 1.071613D-01  Symmetry=a1
              MO Center= -1.1D-15,  4.8D-16,  6.7D-01, r^2= 5.9D+00
   Bfn.  Coefficient  Atom+Function         Bfn.  Coefficient  Atom+Function  
  ----- ------------  ---------------      ----- ------------  ---------------
    13      1.200062  1 N  pz                 6     -0.673956  1 N  s          
     9     -0.332858  1 N  pz                21      0.270372  2 H  s          
    23      0.270372  3 H  s                 25      0.270372  4 H  s          
     5     -0.231384  1 N  pz         

 Vector   10  Occ=0.000000D+00  E= 1.644481D-01  Symmetry=e
              MO Center=  3.1D-02, -1.3D-01,  6.9D-03, r^2= 3.4D+00
   Bfn.  Coefficient  Atom+Function         Bfn.  Coefficient  Atom+Function  
  ----- ------------  ---------------      ----- ------------  ---------------
    23      1.940760  3 H  s                 25     -1.002277  4 H  s          
    21     -0.938482  2 H  s                  8      0.910796  1 N  py         
    12      0.867702  1 N  py                 4      0.311555  1 N  py         
     7     -0.262668  1 N  px                11     -0.250240  1 N  px         
    22      0.212859  3 H  s          

 Vector   11  Occ=0.000000D+00  E= 1.644481D-01  Symmetry=e
              MO Center= -3.1D-02,  1.3D-01,  6.9D-03, r^2= 3.4D+00
   Bfn.  Coefficient  Atom+Function         Bfn.  Coefficient  Atom+Function  
  ----- ------------  ---------------      ----- ------------  ---------------
    21      1.699163  2 H  s                 25     -1.662331  4 H  s          
     7     -0.910796  1 N  px                11     -0.867702  1 N  px         
     3     -0.311555  1 N  px                 8     -0.262668  1 N  py         
    12     -0.250240  1 N  py                20      0.186361  2 H  s          
    24     -0.182321  4 H  s          

 Vector   12  Occ=0.000000D+00  E= 2.270015D-01  Symmetry=a1
              MO Center= -9.4D-16, -3.2D-15, -3.9D-01, r^2= 4.7D+00
   Bfn.  Coefficient  Atom+Function         Bfn.  Coefficient  Atom+Function  
  ----- ------------  ---------------      ----- ------------  ---------------
    10      2.762121  1 N  s                  6      1.905598  1 N  s          
    21     -1.881880  2 H  s                 23     -1.881880  3 H  s          
    25     -1.881880  4 H  s                  9     -0.693357  1 N  pz         
    13     -0.534456  1 N  pz                 5     -0.199155  1 N  pz         

 Vector   13  Occ=0.000000D+00  E= 8.053654D-01  Symmetry=e
              MO Center= -9.3D-02,  2.9D-02,  2.0D-01, r^2= 2.2D+00
   Bfn.  Coefficient  Atom+Function         Bfn.  Coefficient  Atom+Function  
  ----- ------------  ---------------      ----- ------------  ---------------
     8      1.708574  1 N  py                 4     -0.912049  1 N  py         
    12     -0.566624  1 N  py                 7      0.424058  1 N  px         
    23      0.283407  3 H  s                 21     -0.277409  2 H  s          
     3     -0.226365  1 N  px                22      0.220333  3 H  s          
    20     -0.215670  2 H  s          

 Vector   14  Occ=0.000000D+00  E= 8.053654D-01  Symmetry=e
              MO Center=  9.3D-02, -2.9D-02,  2.0D-01, r^2= 2.2D+00
   Bfn.  Coefficient  Atom+Function         Bfn.  Coefficient  Atom+Function  
  ----- ------------  ---------------      ----- ------------  ---------------
     7      1.708574  1 N  px                 3     -0.912049  1 N  px         
    11     -0.566624  1 N  px                 8     -0.424058  1 N  py         
    25      0.323787  4 H  s                 24      0.251726  4 H  s          
     4      0.226365  1 N  py                21     -0.167088  2 H  s          
    23     -0.156700  3 H  s          

 Vector   15  Occ=0.000000D+00  E= 8.394478D-01  Symmetry=a1
              MO Center=  6.9D-18, -6.8D-17,  2.3D-01, r^2= 2.2D+00
   Bfn.  Coefficient  Atom+Function         Bfn.  Coefficient  Atom+Function  
  ----- ------------  ---------------      ----- ------------  ---------------
     9      1.654957  1 N  pz                 5     -1.014193  1 N  pz         
     6     -0.687541  1 N  s                 10     -0.591899  1 N  s          
    13     -0.535686  1 N  pz                21      0.494424  2 H  s          
    23      0.494424  3 H  s                 25      0.494424  4 H  s          


 center of mass
 --------------
 x =   0.00000000 y =   0.00000000 z =   0.10270045

 moments of inertia (a.u.)
 ------------------
           6.184173954958           0.000000000000           0.000000000000
           0.000000000000           6.184173954958           0.000000000000
           0.000000000000           0.000000000000           9.796654967715

     Multipole analysis of the density
     ---------------------------------

     L   x y z        total         alpha         beta         nuclear
     -   - - -        -----         -----         ----         -------
     0   0 0 0     -0.000000     -5.000000     -5.000000     10.000000

     1   1 0 0      0.000000      0.000000      0.000000      0.000000
     1   0 1 0     -0.000000     -0.000000     -0.000000      0.000000
     1   0 0 1     -0.723610     -0.435122     -0.435122      0.146633

     2   2 0 0     -4.740681     -4.800488     -4.800488      4.860296
     2   1 1 0      0.000000      0.000000      0.000000      0.000000
     2   1 0 1     -0.000000     -0.000000     -0.000000     -0.000000
     2   0 2 0     -4.740681     -4.800488     -4.800488      4.860296
     2   0 1 1      0.000000      0.000000      0.000000     -0.000000
     2   0 0 2     -7.434388     -4.261239     -4.261239      1.088089


 Parallel integral file used       1 records with       0 large values


 Task  times  cpu:        0.5s     wall:        0.6s
 Summary of allocated global arrays
-----------------------------------
  No active global arrays



                         GA Statistics for process    0
                         ------------------------------

       create   destroy   get      put      acc     scatter   gather  read&inc
calls: 1939     1939     2.44e+05 2.31e+04 1.61e+05  362        0     4044     
number of processes/call 1.00e+00 1.00e+00 1.00e+00 1.00e+00 0.00e+00
bytes total:             1.11e+08 9.76e+06 7.25e+07 1.61e+06 0.00e+00 3.24e+04
bytes remote:            0.00e+00 0.00e+00 0.00e+00 0.00e+00 0.00e+00 0.00e+00
Max memory consumed for GA by this process: 585400 bytes
MA_summarize_allocated_blocks: starting scan ...
MA_summarize_allocated_blocks: scan completed: 0 heap blocks, 0 stack blocks
MA usage statistics:

	allocation statistics:
					      heap	     stack
					      ----	     -----
	current number of blocks	         0	         0
	maximum number of blocks	        26	        52
	current total bytes		         0	         0
	maximum total bytes		   6895848	  69035888
	maximum total K-bytes		      6896	     69036
	maximum total M-bytes		         7	        70


                                NWChem Input Module
                                -------------------





                                     CITATION
                                     --------
                Please cite the following reference when publishing
                           results obtained with NWChem:

                 M. Valiev, E.J. Bylaska, N. Govind, K. Kowalski,
              T.P. Straatsma, H.J.J. van Dam, D. Wang, J. Nieplocha,
                        E. Apra, T.L. Windus, W.A. de Jong
                 "NWChem: a comprehensive and scalable open-source
                  solution for large scale molecular simulations"
                      Comput. Phys. Commun. 181, 1477 (2010)
                           doi:10.1016/j.cpc.2010.04.018

                              AUTHORS & CONTRIBUTORS
                              ----------------------
          E. Apra, E. J. Bylaska, W. A. de Jong, N. Govind, K. Kowalski,
       T. P. Straatsma, M. Valiev, H. J. J. van Dam, D. Wang, T. L. Windus,
        J. Hammond, J. Autschbach, K. Bhaskaran-Nair, J. Brabec, K. Lopata,
     F. Aquino, S. Hirata, M. T. Hackler, J. Mullin, P. Nichols, R. Peverati,
    J. Pittner, Y. Zhao, P.-D. Fan, R. J. Harrison, M. Dupuis, D. Silverstein,
    D. M. A. Smith, J. Nieplocha, V. Tipparaju, M. Krishnan, B. E. Van Kuiken,
        A. Vazquez-Mayagoitia, L. Jensen, M. Swart, Q. Wu, T. Van Voorhis,
     A. A. Auer, M. Nooijen, L. D. Crosby, E. Brown, G. Cisneros, G. I. Fann,
     H. Fruchtl, J. Garza, K. Hirao, R. Kendall, J. A. Nichols, K. Tsemekhman,
      K. Wolinski, J. Anchell, D. Bernholdt, P. Borowski, T. Clark, D. Clerc,
      H. Dachsel, M. Deegan, K. Dyall, D. Elwood, E. Glendening, M. Gutowski,
      A. Hess, J. Jaffe, B. Johnson, J. Ju, R. Kobayashi, R. Kutteh, Z. Lin,
   R. Littlefield, X. Long, B. Meng, T. Nakajima, S. Niu, L. Pollack, M. Rosing,
   K. Glaesemann, G. Sandrone, M. Stave, H. Taylor, G. Thomas, J. H. van Lenthe,
                                A. Wong, Z. Zhang.

 Total times  cpu:       21.5s     wall:       23.0s
