
     Program PWSCF v.5.1.2 starts on 11May2015 at 10:36:44 

     This program is part of the open-source Quantum ESPRESSO suite
     for quantum simulation of materials; please cite
         "P. Giannozzi et al., J. Phys.:Condens. Matter 21 395502 (2009);
          URL http://www.quantum-espresso.org", 
     in publications or presentations arising from this work. More details at
     http://www.quantum-espresso.org/quote

     Serial version
     Reading input from Fe_bcc_5.44_11.pw.in

     Current dimensions of program PWSCF are:
     Max number of different atomic species (ntypx) = 10
     Max number of k-points (npk) =  40000
     Max angular momentum in pseudopotentials (lmaxx) =  3
               file Fe.pbe-spn-kjpaw_psl.0.2.1.UPF: wavefunction(s)  3D renormalized

     G-vector sticks info
     --------------------
     sticks:   dense  smooth     PW     G-vecs:    dense   smooth      PW
     Sum         411     333    117                 5425     3805     767

     Generating pointlists ...
     new r_m :   0.3572 (alat units)  1.9434 (a.u.) for type    1


     bravais-lattice index     =            3
     lattice parameter (alat)  =       5.4400  a.u.
     unit-cell volume          =      80.4946 (a.u.)^3
     number of atoms/cell      =            1
     number of atomic types    =            1
     number of electrons       =        16.00
     number of Kohn-Sham states=           12
     kinetic-energy cutoff     =      50.0000  Ry
     charge density cutoff     =     250.0000  Ry
     convergence threshold     =      1.0E-08
     mixing beta               =       0.7000
     number of iterations used =            8  plain     mixing
     Exchange-correlation      =  SLA  PW   PBX  PBC ( 1  4  3  4 0 0)

     celldm(1)=   5.440000  celldm(2)=   0.000000  celldm(3)=   0.000000
     celldm(4)=   0.000000  celldm(5)=   0.000000  celldm(6)=   0.000000

     crystal axes: (cart. coord. in units of alat)
               a(1) = (   0.500000   0.500000   0.500000 )  
               a(2) = (  -0.500000   0.500000   0.500000 )  
               a(3) = (  -0.500000  -0.500000   0.500000 )  

     reciprocal axes: (cart. coord. in units 2 pi/alat)
               b(1) = (  1.000000  0.000000  1.000000 )  
               b(2) = ( -1.000000  1.000000  0.000000 )  
               b(3) = (  0.000000 -1.000000  1.000000 )  


     PseudoPot. # 1 for Fe read from file:
     ./Fe.pbe-spn-kjpaw_psl.0.2.1.UPF
     MD5 check sum: a0a08122d52b112de96d1da1d7dd020f
     Pseudo is Projector augmented-wave + core cor, Zval = 16.0
     Generated using "atomic" code by A. Dal Corso  v.5.0.2 svn rev. 9415
     Shape of augmentation charge: PSQ
     Using radial grid of 1191 points,  6 beta functions with: 
                l(1) =   0
                l(2) =   0
                l(3) =   1
                l(4) =   1
                l(5) =   2
                l(6) =   2
     Q(r) pseudized with 0 coefficients 


     atomic species   valence    mass     pseudopotential
        Fe            16.00    55.85000     Fe( 1.00)

     Starting magnetic structure 
     atomic species   magnetization
        Fe           0.700

     48 Sym. Ops., with inversion, found



   Cartesian axes

     site n.     atom                  positions (alat units)
         1           Fe  tau(   1) = (   0.0000000   0.0000000   0.0000000  )

     number of k points=   112  Marzari-Vanderbilt smearing, width (Ry)=  0.0250

     Number of k-points >= 100: set verbosity='high' to print them.

     Dense  grid:     5425 G-vectors     FFT dimensions: (  24,  24,  24)

     Smooth grid:     3805 G-vectors     FFT dimensions: (  24,  24,  24)

     Largest allocated arrays     est. size (Mb)     dimensions
        Kohn-Sham Wavefunctions         0.09 Mb     (     488,   12)
        NL pseudopotentials             0.13 Mb     (     488,   18)
        Each V/rho on FFT grid          0.42 Mb     (   13824,   2)
        Each G-vector array             0.04 Mb     (    5425)
        G-vector shells                 0.00 Mb     (      88)
     Largest temporary arrays     est. size (Mb)     dimensions
        Auxiliary wavefunctions         0.36 Mb     (     488,   48)
        Each subspace H/S matrix        0.04 Mb     (      48,   48)
        Each <psi_i|beta_j> matrix      0.00 Mb     (      18,   12)
        Arrays for rho mixing           1.69 Mb     (   13824,    8)

     Check: negative/imaginary core charge=   -0.000427    0.000000

     Initial potential from superposition of free atoms

     starting charge   15.99956, renormalised to   16.00000
     Starting wfc are   13 randomized atomic wfcs

     total cpu time spent up to now is        3.8 secs

     Self-consistent Calculation

     iteration #  1     ecut=    50.00 Ry     beta=0.70
     Davidson diagonalization with overlap
     ethr =  1.00E-02,  avg # of iterations =  3.3

     negative rho (up, down):  0.000E+00 3.568E-04

     Magnetic moment per site:
     atom:    1    charge:   14.2980    magn:    5.7219    constr:    0.0000

     total cpu time spent up to now is        9.1 secs

     total energy              =    -328.98419985 Ry
     Harris-Foulkes estimate   =    -328.06758003 Ry
     estimated scf accuracy    <       1.49943154 Ry

     total magnetization       =     3.89 Bohr mag/cell
     absolute magnetization    =     3.91 Bohr mag/cell

     iteration #  2     ecut=    50.00 Ry     beta=0.70
     Davidson diagonalization with overlap
     ethr =  9.37E-03,  avg # of iterations =  1.2

     negative rho (up, down):  0.000E+00 3.767E-04

     Magnetic moment per site:
     atom:    1    charge:   14.5305    magn:    3.5353    constr:    0.0000

     total cpu time spent up to now is       13.3 secs

     total energy              =    -329.15840961 Ry
     Harris-Foulkes estimate   =    -329.10332230 Ry
     estimated scf accuracy    <       0.35557350 Ry

     total magnetization       =     3.07 Bohr mag/cell
     absolute magnetization    =     3.20 Bohr mag/cell

     iteration #  3     ecut=    50.00 Ry     beta=0.70
     Davidson diagonalization with overlap
     ethr =  2.22E-03,  avg # of iterations =  2.1

     negative rho (up, down):  0.000E+00 3.867E-04

     Magnetic moment per site:
     atom:    1    charge:   14.4142    magn:    2.5143    constr:    0.0000

     total cpu time spent up to now is       17.5 secs

     total energy              =    -329.17872276 Ry
     Harris-Foulkes estimate   =    -329.34703180 Ry
     estimated scf accuracy    <       0.48376553 Ry

     total magnetization       =     2.57 Bohr mag/cell
     absolute magnetization    =     2.71 Bohr mag/cell

     iteration #  4     ecut=    50.00 Ry     beta=0.70
     Davidson diagonalization with overlap
     ethr =  2.22E-03,  avg # of iterations =  2.0

     negative rho (up, down):  0.000E+00 2.429E-04

     Magnetic moment per site:
     atom:    1    charge:   14.4446    magn:    2.3511    constr:    0.0000

     total cpu time spent up to now is       20.2 secs

     total energy              =    -329.25774066 Ry
     Harris-Foulkes estimate   =    -329.25694675 Ry
     estimated scf accuracy    <       0.00167540 Ry

     total magnetization       =     2.36 Bohr mag/cell
     absolute magnetization    =     2.53 Bohr mag/cell

     iteration #  5     ecut=    50.00 Ry     beta=0.70
     Davidson diagonalization with overlap
     ethr =  1.05E-05,  avg # of iterations =  3.4

     negative rho (up, down):  0.000E+00 2.350E-04

     Magnetic moment per site:
     atom:    1    charge:   14.4406    magn:    2.3169    constr:    0.0000

     total cpu time spent up to now is       23.8 secs

     total energy              =    -329.26088104 Ry
     Harris-Foulkes estimate   =    -329.26059309 Ry
     estimated scf accuracy    <       0.00056184 Ry

     total magnetization       =     2.23 Bohr mag/cell
     absolute magnetization    =     2.38 Bohr mag/cell

     iteration #  6     ecut=    50.00 Ry     beta=0.70
     Davidson diagonalization with overlap
     ethr =  3.51E-06,  avg # of iterations =  1.1

     negative rho (up, down):  0.000E+00 1.197E-04

     Magnetic moment per site:
     atom:    1    charge:   14.4281    magn:    2.0687    constr:    0.0000

     total cpu time spent up to now is       26.3 secs

     total energy              =    -329.25920480 Ry
     Harris-Foulkes estimate   =    -329.26095979 Ry
     estimated scf accuracy    <       0.00033052 Ry

     total magnetization       =     2.20 Bohr mag/cell
     absolute magnetization    =     2.35 Bohr mag/cell

     iteration #  7     ecut=    50.00 Ry     beta=0.70
     Davidson diagonalization with overlap
     ethr =  2.07E-06,  avg # of iterations =  2.7

     negative rho (up, down):  0.000E+00 1.861E-04

     Magnetic moment per site:
     atom:    1    charge:   14.4337    magn:    2.2246    constr:    0.0000

     total cpu time spent up to now is       30.6 secs

     total energy              =    -329.26114236 Ry
     Harris-Foulkes estimate   =    -329.26042693 Ry
     estimated scf accuracy    <       0.00054591 Ry

     total magnetization       =     2.11 Bohr mag/cell
     absolute magnetization    =     2.23 Bohr mag/cell

     iteration #  8     ecut=    50.00 Ry     beta=0.70
     Davidson diagonalization with overlap
     ethr =  2.07E-06,  avg # of iterations =  2.0

     negative rho (up, down):  0.000E+00 1.839E-04

     Magnetic moment per site:
     atom:    1    charge:   14.4345    magn:    2.2202    constr:    0.0000

     total cpu time spent up to now is       33.7 secs

     total energy              =    -329.26143706 Ry
     Harris-Foulkes estimate   =    -329.26142504 Ry
     estimated scf accuracy    <       0.00001467 Ry

     total magnetization       =     2.16 Bohr mag/cell
     absolute magnetization    =     2.29 Bohr mag/cell

     iteration #  9     ecut=    50.00 Ry     beta=0.70
     Davidson diagonalization with overlap
     ethr =  9.17E-08,  avg # of iterations =  2.1

     negative rho (up, down):  0.000E+00 1.861E-04

     Magnetic moment per site:
     atom:    1    charge:   14.4346    magn:    2.2216    constr:    0.0000

     total cpu time spent up to now is       36.9 secs

     total energy              =    -329.26144165 Ry
     Harris-Foulkes estimate   =    -329.26144095 Ry
     estimated scf accuracy    <       0.00000481 Ry

     total magnetization       =     2.16 Bohr mag/cell
     absolute magnetization    =     2.29 Bohr mag/cell

     iteration # 10     ecut=    50.00 Ry     beta=0.70
     Davidson diagonalization with overlap
     ethr =  3.00E-08,  avg # of iterations =  1.1

     negative rho (up, down):  0.000E+00 1.819E-04

     Magnetic moment per site:
     atom:    1    charge:   14.4342    magn:    2.2095    constr:    0.0000

     total cpu time spent up to now is       39.4 secs

     total energy              =    -329.26144421 Ry
     Harris-Foulkes estimate   =    -329.26144194 Ry
     estimated scf accuracy    <       0.00000413 Ry

     total magnetization       =     2.16 Bohr mag/cell
     absolute magnetization    =     2.29 Bohr mag/cell

     iteration # 11     ecut=    50.00 Ry     beta=0.70
     Davidson diagonalization with overlap
     ethr =  2.58E-08,  avg # of iterations =  1.5

     negative rho (up, down):  0.000E+00 1.820E-04

     Magnetic moment per site:
     atom:    1    charge:   14.4342    magn:    2.2094    constr:    0.0000

     total cpu time spent up to now is       42.0 secs

     total energy              =    -329.26144661 Ry
     Harris-Foulkes estimate   =    -329.26144630 Ry
     estimated scf accuracy    <       0.00000003 Ry

     total magnetization       =     2.16 Bohr mag/cell
     absolute magnetization    =     2.28 Bohr mag/cell

     iteration # 12     ecut=    50.00 Ry     beta=0.70
     Davidson diagonalization with overlap
     ethr =  2.12E-10,  avg # of iterations =  2.7

     negative rho (up, down):  0.000E+00 1.820E-04

     Magnetic moment per site:
     atom:    1    charge:   14.4342    magn:    2.2089    constr:    0.0000

     total cpu time spent up to now is       45.1 secs

     total energy              =    -329.26144668 Ry
     Harris-Foulkes estimate   =    -329.26144664 Ry
     estimated scf accuracy    <       0.00000003 Ry

     total magnetization       =     2.15 Bohr mag/cell
     absolute magnetization    =     2.28 Bohr mag/cell

     iteration # 13     ecut=    50.00 Ry     beta=0.70
     Davidson diagonalization with overlap
     ethr =  2.10E-10,  avg # of iterations =  1.2

     negative rho (up, down):  0.000E+00 1.818E-04

     Magnetic moment per site:
     atom:    1    charge:   14.4342    magn:    2.2088    constr:    0.0000

     total cpu time spent up to now is       47.6 secs

     total energy              =    -329.26144672 Ry
     Harris-Foulkes estimate   =    -329.26144668 Ry
     estimated scf accuracy    <       0.00000003 Ry

     total magnetization       =     2.15 Bohr mag/cell
     absolute magnetization    =     2.28 Bohr mag/cell

     iteration # 14     ecut=    50.00 Ry     beta=0.70
     Davidson diagonalization with overlap
     ethr =  1.70E-10,  avg # of iterations =  1.1

     negative rho (up, down):  0.000E+00 1.818E-04

     Magnetic moment per site:
     atom:    1    charge:   14.4342    magn:    2.2087    constr:    0.0000

     total cpu time spent up to now is       50.4 secs

     End of self-consistent calculation

     Number of k-points >= 100: set verbosity='high' to print the bands.

     the Fermi energy is    17.2044 ev

!    total energy              =    -329.26144673 Ry
     Harris-Foulkes estimate   =    -329.26144672 Ry
     estimated scf accuracy    <          6.8E-09 Ry

     total all-electron energy =     -2545.557982 Ry

     The total energy is the sum of the following terms:

     one-electron contribution =    -114.04707330 Ry
     hartree contribution      =      66.98837084 Ry
     xc contribution           =     -34.79628587 Ry
     ewald contribution        =    -171.25804469 Ry
     one-center paw contrib.   =     -76.14969468 Ry
     smearing contrib. (-TS)   =       0.00128097 Ry

     total magnetization       =     2.15 Bohr mag/cell
     absolute magnetization    =     2.28 Bohr mag/cell

     convergence has been achieved in  14 iterations

     Forces acting on atoms (Ry/au):


     negative rho (up, down):  0.000E+00 1.818E-04
     atom    1 type  1   force =     0.00000000    0.00000000    0.00000000

     Total force =     0.000000     Total SCF correction =     0.000000


     entering subroutine stress ...


     negative rho (up, down):  0.000E+00 1.818E-04
          total   stress  (Ry/bohr**3)                   (kbar)     P= -173.57
  -0.00117990   0.00000000  -0.00000000       -173.57      0.00     -0.00
   0.00000000  -0.00117990   0.00000000          0.00   -173.57      0.00
  -0.00000000   0.00000000  -0.00117990         -0.00      0.00   -173.57


     Writing output data file Fe_bcc.save

     init_run     :      2.36s CPU      2.88s WALL (       1 calls)
     electrons    :     42.59s CPU     46.59s WALL (       1 calls)
     forces       :      0.20s CPU      0.22s WALL (       1 calls)
     stress       :      0.66s CPU      0.87s WALL (       1 calls)

     Called by init_run:
     wfcinit      :      1.15s CPU      1.36s WALL (       1 calls)
     potinit      :      0.63s CPU      0.83s WALL (       1 calls)

     Called by electrons:
     c_bands      :     29.22s CPU     31.48s WALL (      14 calls)
     sum_band     :      5.59s CPU      6.12s WALL (      14 calls)
     v_of_rho     :      0.36s CPU      0.40s WALL (      15 calls)
     newd         :      0.27s CPU      0.34s WALL (      15 calls)
     mix_rho      :      0.04s CPU      0.05s WALL (      14 calls)

     Called by c_bands:
     init_us_2    :      0.66s CPU      0.71s WALL (    3472 calls)
     cegterg      :     27.98s CPU     30.12s WALL (    1568 calls)

     Called by *egterg:
     h_psi        :     24.27s CPU     26.47s WALL (    4760 calls)
     s_psi        :      0.63s CPU      0.54s WALL (    4760 calls)
     g_psi        :      0.13s CPU      0.14s WALL (    3080 calls)
     cdiaghg      :      1.45s CPU      1.56s WALL (    4648 calls)

     Called by h_psi:
     add_vuspsi   :      0.66s CPU      0.58s WALL (    4760 calls)

     General routines
     calbec       :      0.74s CPU      0.81s WALL (    6552 calls)
     fft          :      0.19s CPU      0.21s WALL (     499 calls)
     ffts         :      0.02s CPU      0.03s WALL (      58 calls)
     fftw         :     25.08s CPU     27.47s WALL (  109958 calls)
     interpolate  :      0.05s CPU      0.06s WALL (      58 calls)
     davcio       :      0.00s CPU      0.00s WALL (     112 calls)


     PAW routines
     PAW_pot      :      7.72s CPU      9.03s WALL (      15 calls)
     PAW_symme    :      0.02s CPU      0.02s WALL (      29 calls)

     PWSCF        :    46.50s CPU        51.99s WALL


   This run was terminated on:  10:37:36  11May2015            

=------------------------------------------------------------------------------=
   JOB DONE.
=------------------------------------------------------------------------------=
