
     Program PWSCF v.5.1.2 starts on 11May2015 at 10:44: 8 

     This program is part of the open-source Quantum ESPRESSO suite
     for quantum simulation of materials; please cite
         "P. Giannozzi et al., J. Phys.:Condens. Matter 21 395502 (2009);
          URL http://www.quantum-espresso.org", 
     in publications or presentations arising from this work. More details at
     http://www.quantum-espresso.org/quote

     Serial version
     Reading input from Fe_bcc_5.44_12.pw.in

     Current dimensions of program PWSCF are:
     Max number of different atomic species (ntypx) = 10
     Max number of k-points (npk) =  40000
     Max angular momentum in pseudopotentials (lmaxx) =  3
               file Fe.pbe-spn-kjpaw_psl.0.2.1.UPF: wavefunction(s)  3D renormalized

     G-vector sticks info
     --------------------
     sticks:   dense  smooth     PW     G-vecs:    dense   smooth      PW
     Sum         411     333    117                 5425     3805     767

     Generating pointlists ...
     new r_m :   0.3572 (alat units)  1.9434 (a.u.) for type    1


     bravais-lattice index     =            3
     lattice parameter (alat)  =       5.4400  a.u.
     unit-cell volume          =      80.4946 (a.u.)^3
     number of atoms/cell      =            1
     number of atomic types    =            1
     number of electrons       =        16.00
     number of Kohn-Sham states=           12
     kinetic-energy cutoff     =      50.0000  Ry
     charge density cutoff     =     250.0000  Ry
     convergence threshold     =      1.0E-08
     mixing beta               =       0.7000
     number of iterations used =            8  plain     mixing
     Exchange-correlation      =  SLA  PW   PBX  PBC ( 1  4  3  4 0 0)

     celldm(1)=   5.440000  celldm(2)=   0.000000  celldm(3)=   0.000000
     celldm(4)=   0.000000  celldm(5)=   0.000000  celldm(6)=   0.000000

     crystal axes: (cart. coord. in units of alat)
               a(1) = (   0.500000   0.500000   0.500000 )  
               a(2) = (  -0.500000   0.500000   0.500000 )  
               a(3) = (  -0.500000  -0.500000   0.500000 )  

     reciprocal axes: (cart. coord. in units 2 pi/alat)
               b(1) = (  1.000000  0.000000  1.000000 )  
               b(2) = ( -1.000000  1.000000  0.000000 )  
               b(3) = (  0.000000 -1.000000  1.000000 )  


     PseudoPot. # 1 for Fe read from file:
     ./Fe.pbe-spn-kjpaw_psl.0.2.1.UPF
     MD5 check sum: a0a08122d52b112de96d1da1d7dd020f
     Pseudo is Projector augmented-wave + core cor, Zval = 16.0
     Generated using "atomic" code by A. Dal Corso  v.5.0.2 svn rev. 9415
     Shape of augmentation charge: PSQ
     Using radial grid of 1191 points,  6 beta functions with: 
                l(1) =   0
                l(2) =   0
                l(3) =   1
                l(4) =   1
                l(5) =   2
                l(6) =   2
     Q(r) pseudized with 0 coefficients 


     atomic species   valence    mass     pseudopotential
        Fe            16.00    55.85000     Fe( 1.00)

     Starting magnetic structure 
     atomic species   magnetization
        Fe           0.700

     48 Sym. Ops., with inversion, found



   Cartesian axes

     site n.     atom                  positions (alat units)
         1           Fe  tau(   1) = (   0.0000000   0.0000000   0.0000000  )

     number of k points=   144  Marzari-Vanderbilt smearing, width (Ry)=  0.0250

     Number of k-points >= 100: set verbosity='high' to print them.

     Dense  grid:     5425 G-vectors     FFT dimensions: (  24,  24,  24)

     Smooth grid:     3805 G-vectors     FFT dimensions: (  24,  24,  24)

     Largest allocated arrays     est. size (Mb)     dimensions
        Kohn-Sham Wavefunctions         0.09 Mb     (     490,   12)
        NL pseudopotentials             0.13 Mb     (     490,   18)
        Each V/rho on FFT grid          0.42 Mb     (   13824,   2)
        Each G-vector array             0.04 Mb     (    5425)
        G-vector shells                 0.00 Mb     (      88)
     Largest temporary arrays     est. size (Mb)     dimensions
        Auxiliary wavefunctions         0.36 Mb     (     490,   48)
        Each subspace H/S matrix        0.04 Mb     (      48,   48)
        Each <psi_i|beta_j> matrix      0.00 Mb     (      18,   12)
        Arrays for rho mixing           1.69 Mb     (   13824,    8)

     Check: negative/imaginary core charge=   -0.000427    0.000000

     Initial potential from superposition of free atoms

     starting charge   15.99956, renormalised to   16.00000
     Starting wfc are   13 randomized atomic wfcs

     total cpu time spent up to now is        2.5 secs

     Self-consistent Calculation

     iteration #  1     ecut=    50.00 Ry     beta=0.70
     Davidson diagonalization with overlap
     ethr =  1.00E-02,  avg # of iterations =  3.1

     negative rho (up, down):  0.000E+00 3.564E-04

     Magnetic moment per site:
     atom:    1    charge:   14.2982    magn:    5.7204    constr:    0.0000

     total cpu time spent up to now is        6.4 secs

     total energy              =    -328.98426723 Ry
     Harris-Foulkes estimate   =    -328.06705116 Ry
     estimated scf accuracy    <       1.50082536 Ry

     total magnetization       =     3.88 Bohr mag/cell
     absolute magnetization    =     3.91 Bohr mag/cell

     iteration #  2     ecut=    50.00 Ry     beta=0.70
     Davidson diagonalization with overlap
     ethr =  9.38E-03,  avg # of iterations =  1.2

     negative rho (up, down):  0.000E+00 3.830E-04

     Magnetic moment per site:
     atom:    1    charge:   14.5270    magn:    3.5551    constr:    0.0000

     total cpu time spent up to now is        9.6 secs

     total energy              =    -329.15642494 Ry
     Harris-Foulkes estimate   =    -329.10290590 Ry
     estimated scf accuracy    <       0.34901340 Ry

     total magnetization       =     3.10 Bohr mag/cell
     absolute magnetization    =     3.22 Bohr mag/cell

     iteration #  3     ecut=    50.00 Ry     beta=0.70
     Davidson diagonalization with overlap
     ethr =  2.18E-03,  avg # of iterations =  2.1

     negative rho (up, down):  0.000E+00 3.926E-04

     Magnetic moment per site:
     atom:    1    charge:   14.4118    magn:    2.5407    constr:    0.0000

     total cpu time spent up to now is       12.8 secs

     total energy              =    -329.17979681 Ry
     Harris-Foulkes estimate   =    -329.34320647 Ry
     estimated scf accuracy    <       0.47389366 Ry

     total magnetization       =     2.57 Bohr mag/cell
     absolute magnetization    =     2.72 Bohr mag/cell

     iteration #  4     ecut=    50.00 Ry     beta=0.70
     Davidson diagonalization with overlap
     ethr =  2.18E-03,  avg # of iterations =  2.0

     negative rho (up, down):  0.000E+00 2.391E-04

     Magnetic moment per site:
     atom:    1    charge:   14.4481    magn:    2.3500    constr:    0.0000

     total cpu time spent up to now is       16.1 secs

     total energy              =    -329.25799928 Ry
     Harris-Foulkes estimate   =    -329.25728592 Ry
     estimated scf accuracy    <       0.00178491 Ry

     total magnetization       =     2.38 Bohr mag/cell
     absolute magnetization    =     2.55 Bohr mag/cell

     iteration #  5     ecut=    50.00 Ry     beta=0.70
     Davidson diagonalization with overlap
     ethr =  1.12E-05,  avg # of iterations =  3.4

     negative rho (up, down):  0.000E+00 2.356E-04

     Magnetic moment per site:
     atom:    1    charge:   14.4411    magn:    2.3260    constr:    0.0000

     total cpu time spent up to now is       20.4 secs

     total energy              =    -329.26114823 Ry
     Harris-Foulkes estimate   =    -329.26087956 Ry
     estimated scf accuracy    <       0.00043240 Ry

     total magnetization       =     2.25 Bohr mag/cell
     absolute magnetization    =     2.39 Bohr mag/cell

     iteration #  6     ecut=    50.00 Ry     beta=0.70
     Davidson diagonalization with overlap
     ethr =  2.70E-06,  avg # of iterations =  1.1

     negative rho (up, down):  0.000E+00 1.385E-04

     Magnetic moment per site:
     atom:    1    charge:   14.4278    magn:    2.1311    constr:    0.0000

     total cpu time spent up to now is       23.2 secs

     total energy              =    -329.26008104 Ry
     Harris-Foulkes estimate   =    -329.26120408 Ry
     estimated scf accuracy    <       0.00026137 Ry

     total magnetization       =     2.23 Bohr mag/cell
     absolute magnetization    =     2.37 Bohr mag/cell

     iteration #  7     ecut=    50.00 Ry     beta=0.70
     Davidson diagonalization with overlap
     ethr =  1.63E-06,  avg # of iterations =  2.6

     negative rho (up, down):  0.000E+00 1.912E-04

     Magnetic moment per site:
     atom:    1    charge:   14.4345    magn:    2.2405    constr:    0.0000

     total cpu time spent up to now is       27.1 secs

     total energy              =    -329.26141109 Ry
     Harris-Foulkes estimate   =    -329.26102929 Ry
     estimated scf accuracy    <       0.00028552 Ry

     total magnetization       =     2.13 Bohr mag/cell
     absolute magnetization    =     2.25 Bohr mag/cell

     iteration #  8     ecut=    50.00 Ry     beta=0.70
     Davidson diagonalization with overlap
     ethr =  1.63E-06,  avg # of iterations =  2.0

     negative rho (up, down):  0.000E+00 1.898E-04

     Magnetic moment per site:
     atom:    1    charge:   14.4356    magn:    2.2354    constr:    0.0000

     total cpu time spent up to now is       30.2 secs

     total energy              =    -329.26159895 Ry
     Harris-Foulkes estimate   =    -329.26158834 Ry
     estimated scf accuracy    <       0.00001246 Ry

     total magnetization       =     2.18 Bohr mag/cell
     absolute magnetization    =     2.30 Bohr mag/cell

     iteration #  9     ecut=    50.00 Ry     beta=0.70
     Davidson diagonalization with overlap
     ethr =  7.79E-08,  avg # of iterations =  2.5

     negative rho (up, down):  0.000E+00 1.889E-04

     Magnetic moment per site:
     atom:    1    charge:   14.4356    magn:    2.2303    constr:    0.0000

     total cpu time spent up to now is       33.8 secs

     total energy              =    -329.26160749 Ry
     Harris-Foulkes estimate   =    -329.26160347 Ry
     estimated scf accuracy    <       0.00000527 Ry

     total magnetization       =     2.18 Bohr mag/cell
     absolute magnetization    =     2.30 Bohr mag/cell

     iteration # 10     ecut=    50.00 Ry     beta=0.70
     Davidson diagonalization with overlap
     ethr =  3.29E-08,  avg # of iterations =  1.1

     negative rho (up, down):  0.000E+00 1.851E-04

     Magnetic moment per site:
     atom:    1    charge:   14.4351    magn:    2.2200    constr:    0.0000

     total cpu time spent up to now is       36.7 secs

     total energy              =    -329.26160906 Ry
     Harris-Foulkes estimate   =    -329.26160841 Ry
     estimated scf accuracy    <       0.00000297 Ry

     total magnetization       =     2.17 Bohr mag/cell
     absolute magnetization    =     2.30 Bohr mag/cell

     iteration # 11     ecut=    50.00 Ry     beta=0.70
     Davidson diagonalization with overlap
     ethr =  1.86E-08,  avg # of iterations =  1.7

     negative rho (up, down):  0.000E+00 1.850E-04

     Magnetic moment per site:
     atom:    1    charge:   14.4351    magn:    2.2191    constr:    0.0000

     total cpu time spent up to now is       39.9 secs

     total energy              =    -329.26161154 Ry
     Harris-Foulkes estimate   =    -329.26161108 Ry
     estimated scf accuracy    <       0.00000008 Ry

     total magnetization       =     2.17 Bohr mag/cell
     absolute magnetization    =     2.29 Bohr mag/cell

     iteration # 12     ecut=    50.00 Ry     beta=0.70
     Davidson diagonalization with overlap
     ethr =  4.76E-10,  avg # of iterations =  2.9

     negative rho (up, down):  0.000E+00 1.846E-04

     Magnetic moment per site:
     atom:    1    charge:   14.4350    magn:    2.2180    constr:    0.0000

     total cpu time spent up to now is       43.7 secs

     total energy              =    -329.26161170 Ry
     Harris-Foulkes estimate   =    -329.26161162 Ry
     estimated scf accuracy    <       0.00000005 Ry

     total magnetization       =     2.17 Bohr mag/cell
     absolute magnetization    =     2.29 Bohr mag/cell

     iteration # 13     ecut=    50.00 Ry     beta=0.70
     Davidson diagonalization with overlap
     ethr =  3.24E-10,  avg # of iterations =  1.8

     negative rho (up, down):  0.000E+00 1.846E-04

     Magnetic moment per site:
     atom:    1    charge:   14.4350    magn:    2.2177    constr:    0.0000

     total cpu time spent up to now is       46.7 secs

     End of self-consistent calculation

     Number of k-points >= 100: set verbosity='high' to print the bands.

     the Fermi energy is    17.2010 ev

!    total energy              =    -329.26161179 Ry
     Harris-Foulkes estimate   =    -329.26161175 Ry
     estimated scf accuracy    <          6.8E-09 Ry

     total all-electron energy =     -2545.558147 Ry

     The total energy is the sum of the following terms:

     one-electron contribution =    -114.05466016 Ry
     hartree contribution      =      66.99678938 Ry
     xc contribution           =     -34.79772501 Ry
     ewald contribution        =    -171.25804469 Ry
     one-center paw contrib.   =     -76.14959301 Ry
     smearing contrib. (-TS)   =       0.00162170 Ry

     total magnetization       =     2.17 Bohr mag/cell
     absolute magnetization    =     2.29 Bohr mag/cell

     convergence has been achieved in  13 iterations

     Forces acting on atoms (Ry/au):


     negative rho (up, down):  0.000E+00 1.846E-04
     atom    1 type  1   force =     0.00000000    0.00000000    0.00000000

     Total force =     0.000000     Total SCF correction =     0.000000


     entering subroutine stress ...


     negative rho (up, down):  0.000E+00 1.846E-04
          total   stress  (Ry/bohr**3)                   (kbar)     P= -174.67
  -0.00118740  -0.00000000   0.00000000       -174.67     -0.00      0.00
  -0.00000000  -0.00118740  -0.00000000         -0.00   -174.67     -0.00
   0.00000000  -0.00000000  -0.00118740          0.00     -0.00   -174.67


     Writing output data file Fe_bcc.save

     init_run     :      2.11s CPU      2.16s WALL (       1 calls)
     electrons    :     43.83s CPU     44.24s WALL (       1 calls)
     forces       :      0.18s CPU      0.19s WALL (       1 calls)
     stress       :      0.67s CPU      0.68s WALL (       1 calls)

     Called by init_run:
     wfcinit      :      1.10s CPU      1.12s WALL (       1 calls)
     potinit      :      0.50s CPU      0.52s WALL (       1 calls)

     Called by electrons:
     c_bands      :     31.69s CPU     31.84s WALL (      13 calls)
     sum_band     :      5.57s CPU      5.63s WALL (      13 calls)
     v_of_rho     :      0.30s CPU      0.31s WALL (      14 calls)
     newd         :      0.21s CPU      0.22s WALL (      14 calls)
     mix_rho      :      0.04s CPU      0.04s WALL (      13 calls)

     Called by c_bands:
     init_us_2    :      0.71s CPU      0.72s WALL (    4176 calls)
     cegterg      :     30.30s CPU     30.43s WALL (    1872 calls)

     Called by *egterg:
     h_psi        :     25.97s CPU     26.26s WALL (    5998 calls)
     s_psi        :      0.68s CPU      0.56s WALL (    5998 calls)
     g_psi        :      0.15s CPU      0.15s WALL (    3982 calls)
     cdiaghg      :      1.71s CPU      1.74s WALL (    5854 calls)

     Called by h_psi:
     add_vuspsi   :      0.69s CPU      0.60s WALL (    5998 calls)

     General routines
     calbec       :      0.76s CPU      0.77s WALL (    8158 calls)
     fft          :      0.16s CPU      0.16s WALL (     468 calls)
     ffts         :      0.02s CPU      0.02s WALL (      54 calls)
     fftw         :     26.50s CPU     26.82s WALL (  133170 calls)
     interpolate  :      0.04s CPU      0.04s WALL (      54 calls)
     davcio       :      0.00s CPU      0.01s WALL (     144 calls)


     PAW routines
     PAW_pot      :      6.50s CPU      6.68s WALL (      14 calls)
     PAW_symme    :      0.02s CPU      0.02s WALL (      27 calls)

     PWSCF        :    47.36s CPU        47.90s WALL


   This run was terminated on:  10:44:55  11May2015            

=------------------------------------------------------------------------------=
   JOB DONE.
=------------------------------------------------------------------------------=
