
     Program PWSCF v.5.1.2 starts on 11May2015 at 10:30:42 

     This program is part of the open-source Quantum ESPRESSO suite
     for quantum simulation of materials; please cite
         "P. Giannozzi et al., J. Phys.:Condens. Matter 21 395502 (2009);
          URL http://www.quantum-espresso.org", 
     in publications or presentations arising from this work. More details at
     http://www.quantum-espresso.org/quote

     Serial version
     Reading input from Fe_bcc_5.45_10.pw.in

     Current dimensions of program PWSCF are:
     Max number of different atomic species (ntypx) = 10
     Max number of k-points (npk) =  40000
     Max angular momentum in pseudopotentials (lmaxx) =  3
               file Fe.pbe-spn-kjpaw_psl.0.2.1.UPF: wavefunction(s)  3D renormalized

     G-vector sticks info
     --------------------
     sticks:   dense  smooth     PW     G-vecs:    dense   smooth      PW
     Sum         411     337    117                 5425     3925     767

     Generating pointlists ...
     new r_m :   0.3572 (alat units)  1.9469 (a.u.) for type    1


     bravais-lattice index     =            3
     lattice parameter (alat)  =       5.4500  a.u.
     unit-cell volume          =      80.9393 (a.u.)^3
     number of atoms/cell      =            1
     number of atomic types    =            1
     number of electrons       =        16.00
     number of Kohn-Sham states=           12
     kinetic-energy cutoff     =      50.0000  Ry
     charge density cutoff     =     250.0000  Ry
     convergence threshold     =      1.0E-08
     mixing beta               =       0.7000
     number of iterations used =            8  plain     mixing
     Exchange-correlation      =  SLA  PW   PBX  PBC ( 1  4  3  4 0 0)

     celldm(1)=   5.450000  celldm(2)=   0.000000  celldm(3)=   0.000000
     celldm(4)=   0.000000  celldm(5)=   0.000000  celldm(6)=   0.000000

     crystal axes: (cart. coord. in units of alat)
               a(1) = (   0.500000   0.500000   0.500000 )  
               a(2) = (  -0.500000   0.500000   0.500000 )  
               a(3) = (  -0.500000  -0.500000   0.500000 )  

     reciprocal axes: (cart. coord. in units 2 pi/alat)
               b(1) = (  1.000000  0.000000  1.000000 )  
               b(2) = ( -1.000000  1.000000  0.000000 )  
               b(3) = (  0.000000 -1.000000  1.000000 )  


     PseudoPot. # 1 for Fe read from file:
     ./Fe.pbe-spn-kjpaw_psl.0.2.1.UPF
     MD5 check sum: a0a08122d52b112de96d1da1d7dd020f
     Pseudo is Projector augmented-wave + core cor, Zval = 16.0
     Generated using "atomic" code by A. Dal Corso  v.5.0.2 svn rev. 9415
     Shape of augmentation charge: PSQ
     Using radial grid of 1191 points,  6 beta functions with: 
                l(1) =   0
                l(2) =   0
                l(3) =   1
                l(4) =   1
                l(5) =   2
                l(6) =   2
     Q(r) pseudized with 0 coefficients 


     atomic species   valence    mass     pseudopotential
        Fe            16.00    55.85000     Fe( 1.00)

     Starting magnetic structure 
     atomic species   magnetization
        Fe           0.700

     48 Sym. Ops., with inversion, found



   Cartesian axes

     site n.     atom                  positions (alat units)
         1           Fe  tau(   1) = (   0.0000000   0.0000000   0.0000000  )

     number of k points=    94  Marzari-Vanderbilt smearing, width (Ry)=  0.0250
                       cart. coord. in units 2pi/alat
        k(    1) = (   0.0000000   0.0000000   0.0000000), wk =   0.0010000
        k(    2) = (   0.0000000  -0.1000000   0.1000000), wk =   0.0120000
        k(    3) = (   0.0000000  -0.2000000   0.2000000), wk =   0.0120000
        k(    4) = (   0.0000000  -0.3000000   0.3000000), wk =   0.0120000
        k(    5) = (   0.0000000  -0.4000000   0.4000000), wk =   0.0120000
        k(    6) = (   0.0000000   0.5000000  -0.5000000), wk =   0.0060000
        k(    7) = (  -0.1000000  -0.1000000   0.2000000), wk =   0.0240000
        k(    8) = (  -0.1000000  -0.2000000   0.3000000), wk =   0.0480000
        k(    9) = (  -0.1000000  -0.3000000   0.4000000), wk =   0.0480000
        k(   10) = (  -0.1000000   0.6000000  -0.5000000), wk =   0.0480000
        k(   11) = (  -0.2000000  -0.2000000   0.4000000), wk =   0.0240000
        k(   12) = (  -0.2000000   0.7000000  -0.5000000), wk =   0.0480000
        k(   13) = (  -0.2000000   0.6000000  -0.4000000), wk =   0.0240000
        k(   14) = (  -0.3000000   0.7000000  -0.4000000), wk =   0.0240000
        k(   15) = (   0.0000000   0.0000000   0.2000000), wk =   0.0060000
        k(   16) = (   0.0000000  -0.1000000   0.3000000), wk =   0.0240000
        k(   17) = (   0.0000000  -0.2000000   0.4000000), wk =   0.0240000
        k(   18) = (   0.0000000  -0.3000000   0.5000000), wk =   0.0240000
        k(   19) = (   0.0000000   0.6000000  -0.4000000), wk =   0.0120000
        k(   20) = (  -0.1000000  -0.1000000   0.4000000), wk =   0.0240000
        k(   21) = (  -0.1000000  -0.2000000   0.5000000), wk =   0.0480000
        k(   22) = (  -0.1000000   0.7000000  -0.4000000), wk =   0.0480000
        k(   23) = (  -0.2000000   0.2000000   0.2000000), wk =   0.0080000
        k(   24) = (  -0.2000000   0.8000000  -0.4000000), wk =   0.0240000
        k(   25) = (  -0.2000000   0.7000000  -0.3000000), wk =   0.0240000
        k(   26) = (  -0.3000000   0.3000000   0.2000000), wk =   0.0240000
        k(   27) = (   0.6000000  -0.6000000   0.2000000), wk =   0.0240000
        k(   28) = (   0.6000000  -0.7000000   0.3000000), wk =   0.0240000
        k(   29) = (   0.5000000  -0.5000000   0.2000000), wk =   0.0120000
        k(   30) = (   0.5000000  -0.6000000   0.3000000), wk =   0.0480000
        k(   31) = (   0.4000000  -0.6000000   0.4000000), wk =   0.0080000
        k(   32) = (   0.0000000   0.0000000   0.4000000), wk =   0.0060000
        k(   33) = (   0.0000000  -0.1000000   0.5000000), wk =   0.0240000
        k(   34) = (   0.0000000  -0.2000000   0.6000000), wk =   0.0240000
        k(   35) = (   0.0000000   0.7000000  -0.3000000), wk =   0.0120000
        k(   36) = (  -0.1000000  -0.1000000   0.6000000), wk =   0.0240000
        k(   37) = (  -0.1000000   0.8000000  -0.3000000), wk =   0.0480000
        k(   38) = (  -0.2000000   0.8000000  -0.2000000), wk =   0.0080000
        k(   39) = (   0.6000000  -0.6000000   0.4000000), wk =   0.0080000
        k(   40) = (   0.5000000  -0.5000000   0.4000000), wk =   0.0120000
        k(   41) = (   0.0000000   0.0000000   0.6000000), wk =   0.0060000
        k(   42) = (   0.0000000  -0.1000000   0.7000000), wk =   0.0240000
        k(   43) = (   0.0000000   0.8000000  -0.2000000), wk =   0.0120000
        k(   44) = (  -0.1000000   0.9000000  -0.2000000), wk =   0.0240000
        k(   45) = (   0.0000000   0.0000000   0.8000000), wk =   0.0060000
        k(   46) = (   0.0000000   0.9000000  -0.1000000), wk =   0.0120000
        k(   47) = (   0.0000000   0.0000000  -1.0000000), wk =   0.0010000
        k(   48) = (   0.0000000   0.0000000   0.0000000), wk =   0.0010000
        k(   49) = (   0.0000000  -0.1000000   0.1000000), wk =   0.0120000
        k(   50) = (   0.0000000  -0.2000000   0.2000000), wk =   0.0120000
        k(   51) = (   0.0000000  -0.3000000   0.3000000), wk =   0.0120000
        k(   52) = (   0.0000000  -0.4000000   0.4000000), wk =   0.0120000
        k(   53) = (   0.0000000   0.5000000  -0.5000000), wk =   0.0060000
        k(   54) = (  -0.1000000  -0.1000000   0.2000000), wk =   0.0240000
        k(   55) = (  -0.1000000  -0.2000000   0.3000000), wk =   0.0480000
        k(   56) = (  -0.1000000  -0.3000000   0.4000000), wk =   0.0480000
        k(   57) = (  -0.1000000   0.6000000  -0.5000000), wk =   0.0480000
        k(   58) = (  -0.2000000  -0.2000000   0.4000000), wk =   0.0240000
        k(   59) = (  -0.2000000   0.7000000  -0.5000000), wk =   0.0480000
        k(   60) = (  -0.2000000   0.6000000  -0.4000000), wk =   0.0240000
        k(   61) = (  -0.3000000   0.7000000  -0.4000000), wk =   0.0240000
        k(   62) = (   0.0000000   0.0000000   0.2000000), wk =   0.0060000
        k(   63) = (   0.0000000  -0.1000000   0.3000000), wk =   0.0240000
        k(   64) = (   0.0000000  -0.2000000   0.4000000), wk =   0.0240000
        k(   65) = (   0.0000000  -0.3000000   0.5000000), wk =   0.0240000
        k(   66) = (   0.0000000   0.6000000  -0.4000000), wk =   0.0120000
        k(   67) = (  -0.1000000  -0.1000000   0.4000000), wk =   0.0240000
        k(   68) = (  -0.1000000  -0.2000000   0.5000000), wk =   0.0480000
        k(   69) = (  -0.1000000   0.7000000  -0.4000000), wk =   0.0480000
        k(   70) = (  -0.2000000   0.2000000   0.2000000), wk =   0.0080000
        k(   71) = (  -0.2000000   0.8000000  -0.4000000), wk =   0.0240000
        k(   72) = (  -0.2000000   0.7000000  -0.3000000), wk =   0.0240000
        k(   73) = (  -0.3000000   0.3000000   0.2000000), wk =   0.0240000
        k(   74) = (   0.6000000  -0.6000000   0.2000000), wk =   0.0240000
        k(   75) = (   0.6000000  -0.7000000   0.3000000), wk =   0.0240000
        k(   76) = (   0.5000000  -0.5000000   0.2000000), wk =   0.0120000
        k(   77) = (   0.5000000  -0.6000000   0.3000000), wk =   0.0480000
        k(   78) = (   0.4000000  -0.6000000   0.4000000), wk =   0.0080000
        k(   79) = (   0.0000000   0.0000000   0.4000000), wk =   0.0060000
        k(   80) = (   0.0000000  -0.1000000   0.5000000), wk =   0.0240000
        k(   81) = (   0.0000000  -0.2000000   0.6000000), wk =   0.0240000
        k(   82) = (   0.0000000   0.7000000  -0.3000000), wk =   0.0120000
        k(   83) = (  -0.1000000  -0.1000000   0.6000000), wk =   0.0240000
        k(   84) = (  -0.1000000   0.8000000  -0.3000000), wk =   0.0480000
        k(   85) = (  -0.2000000   0.8000000  -0.2000000), wk =   0.0080000
        k(   86) = (   0.6000000  -0.6000000   0.4000000), wk =   0.0080000
        k(   87) = (   0.5000000  -0.5000000   0.4000000), wk =   0.0120000
        k(   88) = (   0.0000000   0.0000000   0.6000000), wk =   0.0060000
        k(   89) = (   0.0000000  -0.1000000   0.7000000), wk =   0.0240000
        k(   90) = (   0.0000000   0.8000000  -0.2000000), wk =   0.0120000
        k(   91) = (  -0.1000000   0.9000000  -0.2000000), wk =   0.0240000
        k(   92) = (   0.0000000   0.0000000   0.8000000), wk =   0.0060000
        k(   93) = (   0.0000000   0.9000000  -0.1000000), wk =   0.0120000
        k(   94) = (   0.0000000   0.0000000  -1.0000000), wk =   0.0010000

     Dense  grid:     5425 G-vectors     FFT dimensions: (  24,  24,  24)

     Smooth grid:     3925 G-vectors     FFT dimensions: (  24,  24,  24)

     Largest allocated arrays     est. size (Mb)     dimensions
        Kohn-Sham Wavefunctions         0.09 Mb     (     496,   12)
        NL pseudopotentials             0.14 Mb     (     496,   18)
        Each V/rho on FFT grid          0.42 Mb     (   13824,   2)
        Each G-vector array             0.04 Mb     (    5425)
        G-vector shells                 0.00 Mb     (      88)
     Largest temporary arrays     est. size (Mb)     dimensions
        Auxiliary wavefunctions         0.36 Mb     (     496,   48)
        Each subspace H/S matrix        0.04 Mb     (      48,   48)
        Each <psi_i|beta_j> matrix      0.00 Mb     (      18,   12)
        Arrays for rho mixing           1.69 Mb     (   13824,    8)

     Check: negative/imaginary core charge=   -0.000421    0.000000

     Initial potential from superposition of free atoms

     starting charge   15.99956, renormalised to   16.00000
     Starting wfc are   13 randomized atomic wfcs

     total cpu time spent up to now is        2.3 secs

     Self-consistent Calculation

     iteration #  1     ecut=    50.00 Ry     beta=0.70
     Davidson diagonalization with overlap
     ethr =  1.00E-02,  avg # of iterations =  3.2

     negative rho (up, down):  0.000E+00 3.551E-04

     Magnetic moment per site:
     atom:    1    charge:   14.3052    magn:    5.7027    constr:    0.0000

     total cpu time spent up to now is        5.0 secs

     total energy              =    -328.99488564 Ry
     Harris-Foulkes estimate   =    -328.06935610 Ry
     estimated scf accuracy    <       1.50709026 Ry

     total magnetization       =     3.84 Bohr mag/cell
     absolute magnetization    =     3.88 Bohr mag/cell

     iteration #  2     ecut=    50.00 Ry     beta=0.70
     Davidson diagonalization with overlap
     ethr =  9.42E-03,  avg # of iterations =  1.2

     negative rho (up, down):  0.000E+00 3.868E-04

     Magnetic moment per site:
     atom:    1    charge:   14.5304    magn:    3.5340    constr:    0.0000

     total cpu time spent up to now is        7.2 secs

     total energy              =    -329.15907063 Ry
     Harris-Foulkes estimate   =    -329.10406105 Ry
     estimated scf accuracy    <       0.34254064 Ry

     total magnetization       =     3.10 Bohr mag/cell
     absolute magnetization    =     3.22 Bohr mag/cell

     iteration #  3     ecut=    50.00 Ry     beta=0.70
     Davidson diagonalization with overlap
     ethr =  2.14E-03,  avg # of iterations =  2.1

     negative rho (up, down):  0.000E+00 4.013E-04

     Magnetic moment per site:
     atom:    1    charge:   14.4150    magn:    2.5769    constr:    0.0000

     total cpu time spent up to now is        9.6 secs

     total energy              =    -329.17956705 Ry
     Harris-Foulkes estimate   =    -329.34283473 Ry
     estimated scf accuracy    <       0.46423223 Ry

     total magnetization       =     2.61 Bohr mag/cell
     absolute magnetization    =     2.75 Bohr mag/cell

     iteration #  4     ecut=    50.00 Ry     beta=0.70
     Davidson diagonalization with overlap
     ethr =  2.14E-03,  avg # of iterations =  2.0

     negative rho (up, down):  0.000E+00 2.395E-04

     Magnetic moment per site:
     atom:    1    charge:   14.4546    magn:    2.3349    constr:    0.0000

     total cpu time spent up to now is       11.9 secs

     total energy              =    -329.25695346 Ry
     Harris-Foulkes estimate   =    -329.25640077 Ry
     estimated scf accuracy    <       0.00198670 Ry

     total magnetization       =     2.39 Bohr mag/cell
     absolute magnetization    =     2.56 Bohr mag/cell

     iteration #  5     ecut=    50.00 Ry     beta=0.70
     Davidson diagonalization with overlap
     ethr =  1.24E-05,  avg # of iterations =  3.5

     negative rho (up, down):  0.000E+00 2.416E-04

     Magnetic moment per site:
     atom:    1    charge:   14.4519    magn:    2.3252    constr:    0.0000

     total cpu time spent up to now is       14.9 secs

     total energy              =    -329.26077446 Ry
     Harris-Foulkes estimate   =    -329.26040479 Ry
     estimated scf accuracy    <       0.00060291 Ry

     total magnetization       =     2.20 Bohr mag/cell
     absolute magnetization    =     2.36 Bohr mag/cell

     iteration #  6     ecut=    50.00 Ry     beta=0.70
     Davidson diagonalization with overlap
     ethr =  3.77E-06,  avg # of iterations =  1.1

     negative rho (up, down):  0.000E+00 3.407E-04

     Magnetic moment per site:
     atom:    1    charge:   14.4610    magn:    2.5805    constr:    0.0000

     total cpu time spent up to now is       17.2 secs

     total energy              =    -329.25534085 Ry
     Harris-Foulkes estimate   =    -329.26080657 Ry
     estimated scf accuracy    <       0.00061509 Ry

     total magnetization       =     2.19 Bohr mag/cell
     absolute magnetization    =     2.35 Bohr mag/cell

     iteration #  7     ecut=    50.00 Ry     beta=0.70
     Davidson diagonalization with overlap
     ethr =  3.77E-06,  avg # of iterations =  2.0

     negative rho (up, down):  0.000E+00 1.508E-04

     Magnetic moment per site:
     atom:    1    charge:   14.4387    magn:    2.0964    constr:    0.0000

     total cpu time spent up to now is       19.6 secs

     total energy              =    -329.25546088 Ry
     Harris-Foulkes estimate   =    -329.25669377 Ry
     estimated scf accuracy    <       0.00260665 Ry

     total magnetization       =     2.35 Bohr mag/cell
     absolute magnetization    =     2.53 Bohr mag/cell

     iteration #  8     ecut=    50.00 Ry     beta=0.70
     Davidson diagonalization with overlap
     ethr =  3.77E-06,  avg # of iterations =  2.2

     negative rho (up, down):  0.000E+00 1.661E-04

     Magnetic moment per site:
     atom:    1    charge:   14.4373    magn:    2.1471    constr:    0.0000

     total cpu time spent up to now is       22.2 secs

     total energy              =    -329.26136526 Ry
     Harris-Foulkes estimate   =    -329.26043495 Ry
     estimated scf accuracy    <       0.00022021 Ry

     total magnetization       =     2.10 Bohr mag/cell
     absolute magnetization    =     2.24 Bohr mag/cell

     iteration #  9     ecut=    50.00 Ry     beta=0.70
     Davidson diagonalization with overlap
     ethr =  1.38E-06,  avg # of iterations =  1.2

     negative rho (up, down):  0.000E+00 1.732E-04

     Magnetic moment per site:
     atom:    1    charge:   14.4385    magn:    2.1718    constr:    0.0000

     total cpu time spent up to now is       24.4 secs

     total energy              =    -329.26149603 Ry
     Harris-Foulkes estimate   =    -329.26138356 Ry
     estimated scf accuracy    <       0.00002288 Ry

     total magnetization       =     2.11 Bohr mag/cell
     absolute magnetization    =     2.25 Bohr mag/cell

     iteration # 10     ecut=    50.00 Ry     beta=0.70
     Davidson diagonalization with overlap
     ethr =  1.43E-07,  avg # of iterations =  2.1

     negative rho (up, down):  0.000E+00 1.766E-04

     Magnetic moment per site:
     atom:    1    charge:   14.4384    magn:    2.1808    constr:    0.0000

     total cpu time spent up to now is       26.5 secs

     total energy              =    -329.26150577 Ry
     Harris-Foulkes estimate   =    -329.26150018 Ry
     estimated scf accuracy    <       0.00000024 Ry

     total magnetization       =     2.12 Bohr mag/cell
     absolute magnetization    =     2.25 Bohr mag/cell

     iteration # 11     ecut=    50.00 Ry     beta=0.70
     Davidson diagonalization with overlap
     ethr =  1.52E-09,  avg # of iterations =  3.5

     negative rho (up, down):  0.000E+00 1.756E-04

     Magnetic moment per site:
     atom:    1    charge:   14.4384    magn:    2.1754    constr:    0.0000

     total cpu time spent up to now is       29.4 secs

     total energy              =    -329.26150718 Ry
     Harris-Foulkes estimate   =    -329.26150642 Ry
     estimated scf accuracy    <       0.00000127 Ry

     total magnetization       =     2.12 Bohr mag/cell
     absolute magnetization    =     2.25 Bohr mag/cell

     iteration # 12     ecut=    50.00 Ry     beta=0.70
     Davidson diagonalization with overlap
     ethr =  1.52E-09,  avg # of iterations =  2.0

     negative rho (up, down):  0.000E+00 1.752E-04

     Magnetic moment per site:
     atom:    1    charge:   14.4383    magn:    2.1740    constr:    0.0000

     total cpu time spent up to now is       31.7 secs

     total energy              =    -329.26150771 Ry
     Harris-Foulkes estimate   =    -329.26150756 Ry
     estimated scf accuracy    <       0.00000016 Ry

     total magnetization       =     2.12 Bohr mag/cell
     absolute magnetization    =     2.25 Bohr mag/cell

     iteration # 13     ecut=    50.00 Ry     beta=0.70
     Davidson diagonalization with overlap
     ethr =  9.73E-10,  avg # of iterations =  1.4

     negative rho (up, down):  0.000E+00 1.746E-04

     Magnetic moment per site:
     atom:    1    charge:   14.4383    magn:    2.1725    constr:    0.0000

     total cpu time spent up to now is       33.7 secs

     total energy              =    -329.26150774 Ry
     Harris-Foulkes estimate   =    -329.26150777 Ry
     estimated scf accuracy    <       0.00000003 Ry

     total magnetization       =     2.12 Bohr mag/cell
     absolute magnetization    =     2.25 Bohr mag/cell

     iteration # 14     ecut=    50.00 Ry     beta=0.70
     Davidson diagonalization with overlap
     ethr =  2.13E-10,  avg # of iterations =  2.0

     negative rho (up, down):  0.000E+00 1.748E-04

     Magnetic moment per site:
     atom:    1    charge:   14.4383    magn:    2.1731    constr:    0.0000

     total cpu time spent up to now is       36.1 secs

     total energy              =    -329.26150782 Ry
     Harris-Foulkes estimate   =    -329.26150778 Ry
     estimated scf accuracy    <       0.00000002 Ry

     total magnetization       =     2.11 Bohr mag/cell
     absolute magnetization    =     2.25 Bohr mag/cell

     iteration # 15     ecut=    50.00 Ry     beta=0.70
     Davidson diagonalization with overlap
     ethr =  1.14E-10,  avg # of iterations =  1.1

     negative rho (up, down):  0.000E+00 1.749E-04

     Magnetic moment per site:
     atom:    1    charge:   14.4383    magn:    2.1733    constr:    0.0000

     total cpu time spent up to now is       38.1 secs

     End of self-consistent calculation

 ------ SPIN UP ------------


          k = 0.0000 0.0000 0.0000 (   459 PWs)   bands (ev):

   -70.9257 -36.7614 -36.7614 -36.7614   8.8990  14.9874  14.9874  14.9874
    15.8983  15.8983  41.4746  41.4746

          k = 0.0000-0.1000 0.1000 (   481 PWs)   bands (ev):

   -70.9206 -36.7972 -36.7738 -36.7629   9.2938  14.8843  14.9708  15.1937
    15.8115  15.9070  39.0359  40.7715

          k = 0.0000-0.2000 0.2000 (   483 PWs)   bands (ev):

   -70.9051 -36.8839 -36.8036 -36.7635  10.3939  14.6211  14.8387  15.7614
    15.7624  15.9369  34.6225  38.7816

          k = 0.0000-0.3000 0.3000 (   487 PWs)   bands (ev):

   -70.8859 -36.9900 -36.8400 -36.7640  11.7582  14.3082  14.9176  15.9152
    15.9890  16.5292  30.0415  36.7770

          k = 0.0000-0.4000 0.4000 (   484 PWs)   bands (ev):

   -70.8701 -37.0748 -36.8688 -36.7638  12.3782  14.0644  15.8534  16.0440
    16.4659  17.2200  26.0208  35.4310

          k = 0.0000 0.5000-0.5000 (   496 PWs)   bands (ev):

   -70.8646 -37.1079 -36.8804 -36.7641  12.4278  13.9734  16.0310  16.0682
    17.5045  17.6014  23.9764  34.9532

          k =-0.1000-0.1000 0.2000 (   487 PWs)   bands (ev):

   -70.9100 -36.8572 -36.7871 -36.7718  10.0475  14.7552  14.8017  15.6238
    15.7037  15.9603  36.6181  37.7646

          k =-0.1000-0.2000 0.3000 (   484 PWs)   bands (ev):

   -70.8924 -36.9473 -36.8218 -36.7754  11.3526  14.4575  14.6178  15.7336
    16.0440  16.3906  32.4704  35.4692

          k =-0.1000-0.3000 0.4000 (   483 PWs)   bands (ev):

   -70.8749 -37.0353 -36.8611 -36.7759  12.4248  14.1815  14.9395  15.9422
    16.1740  17.3857  28.0909  33.9678

          k =-0.1000 0.6000-0.5000 (   484 PWs)   bands (ev):

   -70.8641 -37.0891 -36.8857 -36.7759  12.6187  14.0277  15.5752  16.0146
    16.6688  18.6506  24.6629  33.1480

          k =-0.2000-0.2000 0.4000 (   489 PWs)   bands (ev):

   -70.8770 -37.0117 -36.8581 -36.7904  12.5491  14.1483  14.5076  15.7938
    16.1825  17.5187  30.4642  31.2207

          k =-0.2000 0.7000-0.5000 (   486 PWs)   bands (ev):

   -70.8642 -37.0523 -36.9038 -36.7962  13.1137  14.0241  14.7089  15.9696
    16.3659  19.2237  26.6410  29.7357

          k =-0.2000 0.6000-0.4000 (   484 PWs)   bands (ev):

   -70.8593 -37.0651 -36.9246 -36.7974  13.1154  14.0389  14.8702  16.0382
    16.5366  20.7993  24.1986  29.3097

          k =-0.3000 0.7000-0.4000 (   484 PWs)   bands (ev):

   -70.8574 -37.0314 -36.9642 -36.8055  13.5888  13.9596  14.3940  16.1522
    16.3764  21.8196  25.1698  26.5462

          k = 0.0000 0.0000 0.2000 (   478 PWs)   bands (ev):

   -70.9147 -36.8054 -36.7855 -36.7855   9.6809  14.9952  14.9952  15.1958
    15.5702  16.0265  38.2399  40.0784

          k = 0.0000-0.1000 0.3000 (   483 PWs)   bands (ev):

   -70.8996 -36.8834 -36.8157 -36.7908  10.7415  14.8103  14.8550  15.4358
    15.7109  16.1511  34.8494  37.8336

          k = 0.0000-0.2000 0.4000 (   474 PWs)   bands (ev):

   -70.8803 -36.9850 -36.8515 -36.7887  12.0408  14.5243  14.6097  15.7384
    16.4057  16.4855  30.3266  36.1174

          k = 0.0000-0.3000 0.5000 (   481 PWs)   bands (ev):

   -70.8654 -37.0673 -36.8813 -36.7878  12.6087  14.2977  14.8921  15.9013
    17.1889  17.5631  26.2285  35.0548

          k = 0.0000 0.6000-0.4000 (   484 PWs)   bands (ev):

   -70.8597 -37.0984 -36.8927 -36.7872  12.6380  14.2126  15.1253  15.8793
    17.4801  18.8561  24.0392  34.5116

          k =-0.1000-0.1000 0.4000 (   484 PWs)   bands (ev):

   -70.8830 -36.9513 -36.8497 -36.8086  11.8953  14.4450  14.8463  15.4471
    16.2083  16.5307  32.6918  33.5891

          k =-0.1000-0.2000 0.5000 (   478 PWs)   bands (ev):

   -70.8661 -37.0264 -36.8903 -36.8109  12.8337  14.1306  14.7243  15.7446
    16.6082  17.7912  28.6025  31.7152

          k =-0.1000 0.7000-0.4000 (   481 PWs)   bands (ev):

   -70.8560 -37.0733 -36.9169 -36.8107  12.9780  14.2999  14.5557  15.8645
    17.0864  19.7636  24.9472  30.8568

          k =-0.2000 0.2000 0.2000 (   483 PWs)   bands (ev):

   -70.8968 -36.9345 -36.7891 -36.7891  11.0849  14.4703  14.4703  15.8832
    15.8832  16.4073  34.6418  34.6418

          k =-0.2000 0.8000-0.4000 (   473 PWs)   bands (ev):

   -70.8542 -37.0448 -36.9447 -36.8188  13.4550  13.7377  14.5841  16.0232
    16.7180  20.0586  27.0382  27.8687

          k =-0.2000 0.7000-0.3000 (   478 PWs)   bands (ev):

   -70.8500 -37.0440 -36.9760 -36.8207  13.4829  13.9902  14.2393  16.2215
    16.7685  22.2875  24.4085  27.1553

          k =-0.3000 0.3000 0.2000 (   487 PWs)   bands (ev):

   -70.8809 -37.0080 -36.8336 -36.7918  12.4148  14.1767  14.3236  15.9319
    15.9999  17.4889  30.4941  33.0638

          k = 0.6000-0.6000 0.2000 (   494 PWs)   bands (ev):

   -70.8681 -37.0570 -36.8793 -36.7950  12.9498  13.9823  15.0322  16.0356
    16.0605  18.9494  26.4253  32.0248

          k = 0.6000-0.7000 0.3000 (   486 PWs)   bands (ev):

   -70.8692 -37.0376 -36.8674 -36.8164  13.3919  13.9862  14.2513  16.0085
    16.0866  19.0757  28.8024  29.4571

          k = 0.5000-0.5000 0.2000 (   492 PWs)   bands (ev):

   -70.8631 -37.0731 -36.8984 -36.7958  12.9407  13.9150  15.6044  16.0754
    16.0793  20.2412  24.1380  31.6703

          k = 0.5000-0.6000 0.3000 (   488 PWs)   bands (ev):

   -70.8620 -37.0351 -36.9169 -36.8243  13.4747  13.9394  14.7216  16.0885
    16.1396  21.2295  25.3374  28.4229

          k = 0.4000-0.6000 0.4000 (   490 PWs)   bands (ev):

   -70.8599 -36.9794 -36.9794 -36.8355  13.6620  14.2584  14.2584  16.1451
    16.1451  23.9670  23.9670  26.0641

          k = 0.0000 0.0000 0.4000 (   482 PWs)   bands (ev):

   -70.8853 -36.8974 -36.8466 -36.8466  11.6549  14.7009  15.1702  15.1702
    15.7497  16.4723  35.0706  35.7910

          k = 0.0000-0.1000 0.5000 (   482 PWs)   bands (ev):

   -70.8677 -36.9739 -36.8844 -36.8558  12.6544  14.1357  15.1095  15.5173
    16.3896  17.1921  31.1244  33.7267

          k = 0.0000-0.2000 0.6000 (   482 PWs)   bands (ev):

   -70.8534 -37.0468 -36.9148 -36.8518  13.0403  13.9195  14.9521  15.7175
    17.1088  19.0227  26.8890  32.2553

          k = 0.0000 0.7000-0.3000 (   484 PWs)   bands (ev):

   -70.8481 -37.0749 -36.9262 -36.8503  13.0043  13.9841  14.8880  15.7335
    17.4166  20.8749  24.2884  31.7090

          k =-0.1000-0.1000 0.6000 (   482 PWs)   bands (ev):

   -70.8524 -37.0170 -36.9295 -36.8719  13.1596  13.6429  15.1845  15.8414
    16.7714  18.8602  29.3777  29.8567

          k =-0.1000 0.8000-0.3000 (   480 PWs)   bands (ev):

   -70.8429 -37.0484 -36.9623 -36.8713  13.1942  13.5244  15.0300  16.1317
    17.1297  21.4396  25.6637  28.7405

          k =-0.2000 0.8000-0.2000 (   481 PWs)   bands (ev):

   -70.8390 -37.0177 -37.0177 -36.8734  13.3155  13.3155  14.9269  16.7752
    16.7752  24.3377  24.3377  26.1764

          k = 0.6000-0.6000 0.4000 (   483 PWs)   bands (ev):

   -70.8627 -37.0201 -36.8755 -36.8755  13.9405  13.9405  14.2027  16.0866
    16.0866  21.2397  27.7644  27.7644

          k = 0.5000-0.5000 0.4000 (   480 PWs)   bands (ev):

   -70.8603 -36.9850 -36.9260 -36.8786  13.9122  13.9398  14.4190  16.0973
    16.1065  23.5526  24.9583  27.4131

          k = 0.0000 0.0000 0.6000 (   486 PWs)   bands (ev):

   -70.8517 -36.9744 -36.9238 -36.9238  13.0214  13.6257  15.7549  15.7549
    16.4500  18.4673  31.4625  31.4625

          k = 0.0000-0.1000 0.7000 (   477 PWs)   bands (ev):

   -70.8384 -37.0215 -36.9554 -36.9300  13.0452  13.2105  15.8755  16.0915
    17.0178  20.7077  27.9248  29.8488

          k = 0.0000 0.8000-0.2000 (   480 PWs)   bands (ev):

   -70.8335 -37.0460 -36.9680 -36.9267  12.9422  13.1343  15.8566  16.1956
    17.3387  23.1238  24.9071  29.2216

          k =-0.1000 0.9000-0.2000 (   476 PWs)   bands (ev):

   -70.8298 -37.0275 -36.9964 -36.9387  12.9060  12.9169  15.9659  16.7199
    17.1511  23.3791  26.6138  27.1617

          k = 0.0000 0.0000 0.8000 (   486 PWs)   bands (ev):

   -70.8267 -37.0075 -36.9889 -36.9889  12.7482  12.7700  16.6913  16.6913
    17.0286  22.8898  28.0637  28.0637

          k = 0.0000 0.9000-0.1000 (   482 PWs)   bands (ev):

   -70.8220 -37.0226 -37.0014 -36.9897  12.6058  12.6200  16.8168  16.9319
    17.2761  25.3792  25.9397  27.3790

          k = 0.0000 0.0000-1.0000 (   490 PWs)   bands (ev):

   -70.8177 -37.0142 -37.0142 -37.0142  12.4485  12.4485  17.2523  17.2523
    17.2523  26.6551  26.6551  26.6551

 ------ SPIN DOWN ----------


          k = 0.0000 0.0000 0.0000 (   459 PWs)   bands (ev):

   -68.3546 -34.2366 -34.2366 -34.2366   9.0372  16.6543  16.6543  16.6543
    18.8996  18.8996  41.1898  41.1898

          k = 0.0000-0.1000 0.1000 (   481 PWs)   bands (ev):

   -68.3489 -34.2758 -34.2499 -34.2380   9.4345  16.5318  16.6297  16.8780
    18.7685  18.9092  39.1157  40.6490

          k = 0.0000-0.2000 0.2000 (   483 PWs)   bands (ev):

   -68.3319 -34.3722 -34.2825 -34.2385  10.5601  16.2210  16.5034  17.4964
    18.5604  18.9467  35.0732  38.8558

          k = 0.0000-0.3000 0.3000 (   487 PWs)   bands (ev):

   -68.3110 -34.4902 -34.3224 -34.2390  12.1247  15.8550  16.3858  18.3423
    18.5304  19.0187  30.7470  36.8666

          k = 0.0000-0.4000 0.4000 (   484 PWs)   bands (ev):

   -68.2939 -34.5843 -34.3542 -34.2387  13.3358  15.5720  16.9271  18.6189
    19.0996  19.1152  27.0102  35.4812

          k = 0.0000 0.5000-0.5000 (   496 PWs)   bands (ev):

   -68.2877 -34.6207 -34.3668 -34.2391  13.6417  15.4668  17.6697  18.6604
    19.1363  19.4378  25.2448  34.9832

          k =-0.1000-0.1000 0.2000 (   487 PWs)   bands (ev):

   -68.3374 -34.3425 -34.2643 -34.2476  10.1995  16.3764  16.4588  17.3361
    18.5692  18.9603  36.9070  38.0202

          k =-0.1000-0.2000 0.3000 (   484 PWs)   bands (ev):

   -68.3182 -34.4428 -34.3026 -34.2515  11.5821  16.0416  16.2461  18.1317
    18.4310  19.0541  33.0369  35.8211

          k =-0.1000-0.3000 0.4000 (   483 PWs)   bands (ev):

   -68.2992 -34.5404 -34.3459 -34.2521  13.0825  15.7072  16.2686  18.4994
    18.9679  19.2710  28.8968  34.3265

          k =-0.1000 0.6000-0.5000 (   484 PWs)   bands (ev):

   -68.2874 -34.6000 -34.3730 -34.2523  13.7957  15.5154  16.8966  18.6144
    19.1579  20.0704  25.7897  33.4913

          k =-0.2000-0.2000 0.4000 (   489 PWs)   bands (ev):

   -68.3014 -34.5140 -34.3428 -34.2681  13.0047  15.8111  15.9294  18.3892
    18.9369  19.4141  31.1330  31.7722

          k =-0.2000 0.7000-0.5000 (   486 PWs)   bands (ev):

   -68.2875 -34.5590 -34.3934 -34.2745  14.1472  15.5627  16.0116  18.5228
    19.0636  20.7270  27.5008  30.3287

          k =-0.2000 0.6000-0.4000 (   484 PWs)   bands (ev):

   -68.2821 -34.5732 -34.4165 -34.2758  14.4100  15.5109  16.2576  18.6245
    19.0699  21.9171  25.3262  29.8949

          k =-0.3000 0.7000-0.4000 (   484 PWs)   bands (ev):

   -68.2801 -34.5355 -34.4607 -34.2847  14.8687  15.4839  15.7961  18.6898
    18.9505  22.9615  26.0859  27.2954

          k = 0.0000 0.0000 0.2000 (   478 PWs)   bands (ev):

   -68.3424 -34.2855 -34.2627 -34.2627   9.8267  16.6393  16.6393  16.8830
    18.4547  19.0584  38.3562  40.1923

          k = 0.0000-0.1000 0.3000 (   483 PWs)   bands (ev):

   -68.3261 -34.3719 -34.2958 -34.2685  10.9248  16.4190  16.5755  17.4403
    18.0819  19.1768  35.3095  38.0891

          k = 0.0000-0.2000 0.4000 (   474 PWs)   bands (ev):

   -68.3053 -34.4846 -34.3354 -34.2665  12.4488  16.0849  16.3666  18.0822
    18.2926  19.2988  31.0279  36.3828

          k = 0.0000-0.3000 0.5000 (   481 PWs)   bands (ev):

   -68.2888 -34.5758 -34.3680 -34.2655  13.6319  15.8218  16.5081  18.3094
    19.0800  19.6731  27.1915  35.2346

          k = 0.0000 0.6000-0.4000 (   484 PWs)   bands (ev):

   -68.2825 -34.6102 -34.3805 -34.2648  13.9334  15.7235  16.8346  18.3689
    19.4109  20.2535  25.2733  34.9889

          k =-0.1000-0.1000 0.4000 (   484 PWs)   bands (ev):

   -68.3080 -34.4472 -34.3334 -34.2882  12.2137  16.3243  16.3989  17.7875
    18.0631  19.3601  33.3113  34.0841

          k =-0.1000-0.2000 0.5000 (   478 PWs)   bands (ev):

   -68.2897 -34.5302 -34.3783 -34.2909  13.6134  15.9439  16.2663  17.9649
    18.7943  19.8667  29.3853  32.2817

          k =-0.1000 0.7000-0.4000 (   481 PWs)   bands (ev):

   -68.2786 -34.5821 -34.4076 -34.2907  14.3180  15.8950  16.2009  18.1845
    19.1512  21.1770  26.0034  31.4184

          k =-0.2000 0.2000 0.2000 (   483 PWs)   bands (ev):

   -68.3231 -34.4283 -34.2667 -34.2667  11.2674  16.0753  16.0753  18.1430
    18.7882  18.7882  35.0233  35.0233

          k =-0.2000 0.8000-0.4000 (   473 PWs)   bands (ev):

   -68.2769 -34.5506 -34.4387 -34.2996  14.6624  15.5589  16.1627  18.1819
    18.9246  21.5310  27.9320  28.5323

          k =-0.2000 0.7000-0.3000 (   478 PWs)   bands (ev):

   -68.2722 -34.5493 -34.4736 -34.3016  15.0453  15.7013  15.7784  18.4057
    18.8950  23.4026  25.4582  27.8781

          k =-0.3000 0.3000 0.2000 (   487 PWs)   bands (ev):

   -68.3056 -34.5098 -34.3157 -34.2697  12.7701  15.6983  15.8283  18.7280
    18.9801  19.1839  31.1188  33.4597

          k = 0.6000-0.6000 0.2000 (   494 PWs)   bands (ev):

   -68.2916 -34.5642 -34.3660 -34.2732  13.9283  15.4386  16.0747  18.7758
    19.1066  20.3909  27.2974  32.4029

          k = 0.6000-0.7000 0.3000 (   486 PWs)   bands (ev):

   -68.2928 -34.5426 -34.3535 -34.2969  14.1076  15.4656  15.5401  18.8382
    19.0735  20.5661  29.4690  30.0556

          k = 0.5000-0.5000 0.2000 (   492 PWs)   bands (ev):

   -68.2861 -34.5823 -34.3872 -34.2741  14.1700  15.3474  16.5432  18.8110
    19.1517  21.2948  25.2923  32.0355

          k = 0.5000-0.6000 0.3000 (   488 PWs)   bands (ev):

   -68.2850 -34.5399 -34.4083 -34.3057  14.6843  15.3250  15.8243  18.9182
    19.1269  22.3351  26.2267  29.0322

          k = 0.4000-0.6000 0.4000 (   490 PWs)   bands (ev):

   -68.2827 -34.4780 -34.4780 -34.3180  14.9557  15.5183  15.5183  19.0468
    19.0468  24.8392  24.8392  26.8511

          k = 0.0000 0.0000 0.4000 (   482 PWs)   bands (ev):

   -68.3106 -34.3880 -34.3299 -34.3299  11.9321  16.7819  16.7819  17.2944
    17.4923  19.4056  35.5948  36.2717

          k = 0.0000-0.1000 0.5000 (   482 PWs)   bands (ev):

   -68.2914 -34.4722 -34.3715 -34.3405  13.2733  16.3326  16.7074  17.3841
    18.1873  19.7181  31.8006  34.2358

          k = 0.0000-0.2000 0.6000 (   482 PWs)   bands (ev):

   -68.2759 -34.5526 -34.4050 -34.3361  14.3152  15.8534  16.5274  17.7692
    18.9898  20.7250  27.7622  32.7402

          k = 0.0000 0.7000-0.3000 (   484 PWs)   bands (ev):

   -68.2699 -34.5837 -34.4177 -34.3343  14.5968  15.8040  16.4538  17.8343
    19.3406  22.0693  25.3989  32.1711

          k =-0.1000-0.1000 0.6000 (   482 PWs)   bands (ev):

   -68.2748 -34.5195 -34.4215 -34.3582  14.3171  15.7596  16.8252  17.6557
    18.6908  20.6444  30.1528  30.4319

          k =-0.1000 0.8000-0.3000 (   480 PWs)   bands (ev):

   -68.2644 -34.5540 -34.4580 -34.3575  14.9102  15.4155  16.6226  18.0315
    19.0631  22.6516  26.5643  29.3651

          k =-0.2000 0.8000-0.2000 (   481 PWs)   bands (ev):

   -68.2601 -34.5196 -34.5196 -34.3595  15.2205  15.2205  16.4150  18.6928
    18.6928  25.3047  25.3047  26.8790

          k = 0.6000-0.6000 0.4000 (   483 PWs)   bands (ev):

   -68.2860 -34.5231 -34.3626 -34.3626  15.0929  15.2855  15.2855  19.0958
    19.0958  22.3894  28.4083  28.4083

          k = 0.5000-0.5000 0.4000 (   480 PWs)   bands (ev):

   -68.2833 -34.4844 -34.4187 -34.3661  15.1378  15.2329  15.5524  19.1164
    19.1768  24.3905  25.8085  28.0446

          k = 0.0000 0.0000 0.6000 (   486 PWs)   bands (ev):

   -68.2741 -34.4729 -34.4150 -34.4150  14.1590  15.9039  17.3917  17.3917
    18.2667  20.3882  31.9592  31.9592

          k = 0.0000-0.1000 0.7000 (   477 PWs)   bands (ev):

   -68.2596 -34.5242 -34.4500 -34.4224  14.6950  15.3080  17.5396  17.8229
    18.8892  21.9687  28.5949  30.2934

          k = 0.0000 0.8000-0.2000 (   480 PWs)   bands (ev):

   -68.2542 -34.5509 -34.4638 -34.4189  14.8874  15.0431  17.5232  17.9537
    19.2544  24.0482  25.7601  29.6316

          k =-0.1000 0.9000-0.2000 (   476 PWs)   bands (ev):

   -68.2502 -34.5302 -34.4955 -34.4319  14.8120  14.9278  17.6191  18.5265
    19.0424  24.2590  27.2944  27.6817

          k = 0.0000 0.0000 0.8000 (   486 PWs)   bands (ev):

   -68.2469 -34.5082 -34.4868 -34.4868  14.6219  14.8327  18.4607  18.4607
    18.9097  23.7132  28.4249  28.4249

          k = 0.0000 0.9000-0.1000 (   482 PWs)   bands (ev):

   -68.2417 -34.5244 -34.5007 -34.4881  14.5881  14.6069  18.6294  18.7530
    19.1853  25.9275  26.4152  27.6799

          k = 0.0000 0.0000-1.0000 (   490 PWs)   bands (ev):

   -68.2372 -34.5147 -34.5147 -34.5147  14.4376  14.4376  19.1590  19.1590
    19.1590  26.8757  26.8757  26.8757

     the Fermi energy is    17.0933 ev

!    total energy              =    -329.26150784 Ry
     Harris-Foulkes estimate   =    -329.26150783 Ry
     estimated scf accuracy    <          2.7E-09 Ry

     total all-electron energy =     -2545.558043 Ry

     The total energy is the sum of the following terms:

     one-electron contribution =    -114.54454172 Ry
     hartree contribution      =      67.16327149 Ry
     xc contribution           =     -34.78858619 Ry
     ewald contribution        =    -170.94380975 Ry
     one-center paw contrib.   =     -76.14959266 Ry
     smearing contrib. (-TS)   =       0.00175100 Ry

     total magnetization       =     2.11 Bohr mag/cell
     absolute magnetization    =     2.25 Bohr mag/cell

     convergence has been achieved in  15 iterations

     Forces acting on atoms (Ry/au):


     negative rho (up, down):  0.000E+00 1.749E-04
     atom    1 type  1   force =     0.00000000    0.00000000    0.00000000

     Total force =     0.000000     Total SCF correction =     0.000000


     entering subroutine stress ...


     negative rho (up, down):  0.000E+00 1.749E-04
          total   stress  (Ry/bohr**3)                   (kbar)     P= -191.30
  -0.00130044   0.00000000  -0.00000000       -191.30      0.00     -0.00
   0.00000000  -0.00130044   0.00000000          0.00   -191.30      0.00
  -0.00000000   0.00000000  -0.00130044         -0.00      0.00   -191.30


     Writing output data file Fe_bcc.save

     init_run     :      1.75s CPU      1.80s WALL (       1 calls)
     electrons    :     35.66s CPU     35.88s WALL (       1 calls)
     forces       :      0.14s CPU      0.14s WALL (       1 calls)
     stress       :      0.56s CPU      0.58s WALL (       1 calls)

     Called by init_run:
     wfcinit      :      0.71s CPU      0.71s WALL (       1 calls)
     potinit      :      0.52s CPU      0.54s WALL (       1 calls)

     Called by electrons:
     c_bands      :     23.97s CPU     23.98s WALL (      15 calls)
     sum_band     :      4.29s CPU      4.34s WALL (      15 calls)
     v_of_rho     :      0.34s CPU      0.35s WALL (      16 calls)
     newd         :      0.24s CPU      0.25s WALL (      16 calls)
     mix_rho      :      0.04s CPU      0.05s WALL (      15 calls)

     Called by c_bands:
     init_us_2    :      0.52s CPU      0.53s WALL (    3102 calls)
     cegterg      :     22.93s CPU     22.92s WALL (    1410 calls)

     Called by *egterg:
     h_psi        :     19.59s CPU     19.73s WALL (    4388 calls)
     s_psi        :      0.52s CPU      0.42s WALL (    4388 calls)
     g_psi        :      0.11s CPU      0.12s WALL (    2884 calls)
     cdiaghg      :      1.25s CPU      1.26s WALL (    4294 calls)

     Called by h_psi:
     add_vuspsi   :      0.52s CPU      0.45s WALL (    4388 calls)

     General routines
     calbec       :      0.56s CPU      0.57s WALL (    5986 calls)
     fft          :      0.18s CPU      0.18s WALL (     530 calls)
     ffts         :      0.02s CPU      0.02s WALL (      62 calls)
     fftw         :     19.98s CPU     20.16s WALL (  100238 calls)
     interpolate  :      0.04s CPU      0.05s WALL (      62 calls)
     davcio       :      0.00s CPU      0.00s WALL (      94 calls)


     PAW routines
     PAW_pot      :      7.26s CPU      7.41s WALL (      16 calls)
     PAW_symme    :      0.02s CPU      0.02s WALL (      31 calls)

     PWSCF        :    38.68s CPU        39.09s WALL


   This run was terminated on:  10:31:21  11May2015            

=------------------------------------------------------------------------------=
   JOB DONE.
=------------------------------------------------------------------------------=
