
     Program PWSCF v.5.1.2 starts on 11May2015 at 10:37:36 

     This program is part of the open-source Quantum ESPRESSO suite
     for quantum simulation of materials; please cite
         "P. Giannozzi et al., J. Phys.:Condens. Matter 21 395502 (2009);
          URL http://www.quantum-espresso.org", 
     in publications or presentations arising from this work. More details at
     http://www.quantum-espresso.org/quote

     Serial version
     Reading input from Fe_bcc_5.45_11.pw.in

     Current dimensions of program PWSCF are:
     Max number of different atomic species (ntypx) = 10
     Max number of k-points (npk) =  40000
     Max angular momentum in pseudopotentials (lmaxx) =  3
               file Fe.pbe-spn-kjpaw_psl.0.2.1.UPF: wavefunction(s)  3D renormalized

     G-vector sticks info
     --------------------
     sticks:   dense  smooth     PW     G-vecs:    dense   smooth      PW
     Sum         411     337    117                 5425     3925     767

     Generating pointlists ...
     new r_m :   0.3572 (alat units)  1.9469 (a.u.) for type    1


     bravais-lattice index     =            3
     lattice parameter (alat)  =       5.4500  a.u.
     unit-cell volume          =      80.9393 (a.u.)^3
     number of atoms/cell      =            1
     number of atomic types    =            1
     number of electrons       =        16.00
     number of Kohn-Sham states=           12
     kinetic-energy cutoff     =      50.0000  Ry
     charge density cutoff     =     250.0000  Ry
     convergence threshold     =      1.0E-08
     mixing beta               =       0.7000
     number of iterations used =            8  plain     mixing
     Exchange-correlation      =  SLA  PW   PBX  PBC ( 1  4  3  4 0 0)

     celldm(1)=   5.450000  celldm(2)=   0.000000  celldm(3)=   0.000000
     celldm(4)=   0.000000  celldm(5)=   0.000000  celldm(6)=   0.000000

     crystal axes: (cart. coord. in units of alat)
               a(1) = (   0.500000   0.500000   0.500000 )  
               a(2) = (  -0.500000   0.500000   0.500000 )  
               a(3) = (  -0.500000  -0.500000   0.500000 )  

     reciprocal axes: (cart. coord. in units 2 pi/alat)
               b(1) = (  1.000000  0.000000  1.000000 )  
               b(2) = ( -1.000000  1.000000  0.000000 )  
               b(3) = (  0.000000 -1.000000  1.000000 )  


     PseudoPot. # 1 for Fe read from file:
     ./Fe.pbe-spn-kjpaw_psl.0.2.1.UPF
     MD5 check sum: a0a08122d52b112de96d1da1d7dd020f
     Pseudo is Projector augmented-wave + core cor, Zval = 16.0
     Generated using "atomic" code by A. Dal Corso  v.5.0.2 svn rev. 9415
     Shape of augmentation charge: PSQ
     Using radial grid of 1191 points,  6 beta functions with: 
                l(1) =   0
                l(2) =   0
                l(3) =   1
                l(4) =   1
                l(5) =   2
                l(6) =   2
     Q(r) pseudized with 0 coefficients 


     atomic species   valence    mass     pseudopotential
        Fe            16.00    55.85000     Fe( 1.00)

     Starting magnetic structure 
     atomic species   magnetization
        Fe           0.700

     48 Sym. Ops., with inversion, found



   Cartesian axes

     site n.     atom                  positions (alat units)
         1           Fe  tau(   1) = (   0.0000000   0.0000000   0.0000000  )

     number of k points=   112  Marzari-Vanderbilt smearing, width (Ry)=  0.0250

     Number of k-points >= 100: set verbosity='high' to print them.

     Dense  grid:     5425 G-vectors     FFT dimensions: (  24,  24,  24)

     Smooth grid:     3925 G-vectors     FFT dimensions: (  24,  24,  24)

     Largest allocated arrays     est. size (Mb)     dimensions
        Kohn-Sham Wavefunctions         0.09 Mb     (     494,   12)
        NL pseudopotentials             0.14 Mb     (     494,   18)
        Each V/rho on FFT grid          0.42 Mb     (   13824,   2)
        Each G-vector array             0.04 Mb     (    5425)
        G-vector shells                 0.00 Mb     (      88)
     Largest temporary arrays     est. size (Mb)     dimensions
        Auxiliary wavefunctions         0.36 Mb     (     494,   48)
        Each subspace H/S matrix        0.04 Mb     (      48,   48)
        Each <psi_i|beta_j> matrix      0.00 Mb     (      18,   12)
        Arrays for rho mixing           1.69 Mb     (   13824,    8)

     Check: negative/imaginary core charge=   -0.000421    0.000000

     Initial potential from superposition of free atoms

     starting charge   15.99956, renormalised to   16.00000
     Starting wfc are   13 randomized atomic wfcs

     total cpu time spent up to now is        3.5 secs

     Self-consistent Calculation

     iteration #  1     ecut=    50.00 Ry     beta=0.70
     Davidson diagonalization with overlap
     ethr =  1.00E-02,  avg # of iterations =  3.2

     negative rho (up, down):  0.000E+00 3.603E-04

     Magnetic moment per site:
     atom:    1    charge:   14.3018    magn:    5.7249    constr:    0.0000

     total cpu time spent up to now is        7.3 secs

     total energy              =    -328.98531567 Ry
     Harris-Foulkes estimate   =    -328.06946789 Ry
     estimated scf accuracy    <       1.49808887 Ry

     total magnetization       =     3.89 Bohr mag/cell
     absolute magnetization    =     3.92 Bohr mag/cell

     iteration #  2     ecut=    50.00 Ry     beta=0.70
     Davidson diagonalization with overlap
     ethr =  9.36E-03,  avg # of iterations =  1.2

     negative rho (up, down):  0.000E+00 3.803E-04

     Magnetic moment per site:
     atom:    1    charge:   14.5345    magn:    3.5426    constr:    0.0000

     total cpu time spent up to now is        9.9 secs

     total energy              =    -329.15795273 Ry
     Harris-Foulkes estimate   =    -329.10391202 Ry
     estimated scf accuracy    <       0.35629910 Ry

     total magnetization       =     3.07 Bohr mag/cell
     absolute magnetization    =     3.20 Bohr mag/cell

     iteration #  3     ecut=    50.00 Ry     beta=0.70
     Davidson diagonalization with overlap
     ethr =  2.23E-03,  avg # of iterations =  2.1

     negative rho (up, down):  0.000E+00 3.927E-04

     Magnetic moment per site:
     atom:    1    charge:   14.4181    magn:    2.5226    constr:    0.0000

     total cpu time spent up to now is       13.5 secs

     total energy              =    -329.17803577 Ry
     Harris-Foulkes estimate   =    -329.34746494 Ry
     estimated scf accuracy    <       0.48631923 Ry

     total magnetization       =     2.58 Bohr mag/cell
     absolute magnetization    =     2.73 Bohr mag/cell

     iteration #  4     ecut=    50.00 Ry     beta=0.70
     Davidson diagonalization with overlap
     ethr =  2.23E-03,  avg # of iterations =  2.0

     negative rho (up, down):  0.000E+00 2.515E-04

     Magnetic moment per site:
     atom:    1    charge:   14.4489    magn:    2.3745    constr:    0.0000

     total cpu time spent up to now is       17.5 secs

     total energy              =    -329.25748725 Ry
     Harris-Foulkes estimate   =    -329.25671969 Ry
     estimated scf accuracy    <       0.00157901 Ry

     total magnetization       =     2.37 Bohr mag/cell
     absolute magnetization    =     2.55 Bohr mag/cell

     iteration #  5     ecut=    50.00 Ry     beta=0.70
     Davidson diagonalization with overlap
     ethr =  9.87E-06,  avg # of iterations =  3.4

     negative rho (up, down):  0.000E+00 2.462E-04

     Magnetic moment per site:
     atom:    1    charge:   14.4460    magn:    2.3467    constr:    0.0000

     total cpu time spent up to now is       22.4 secs

     total energy              =    -329.26050805 Ry
     Harris-Foulkes estimate   =    -329.26022342 Ry
     estimated scf accuracy    <       0.00056763 Ry

     total magnetization       =     2.25 Bohr mag/cell
     absolute magnetization    =     2.40 Bohr mag/cell

     iteration #  6     ecut=    50.00 Ry     beta=0.70
     Davidson diagonalization with overlap
     ethr =  3.55E-06,  avg # of iterations =  1.0

     negative rho (up, down):  0.000E+00 1.319E-04

     Magnetic moment per site:
     atom:    1    charge:   14.4354    magn:    2.0774    constr:    0.0000

     total cpu time spent up to now is       25.1 secs

     total energy              =    -329.25880394 Ry
     Harris-Foulkes estimate   =    -329.26056721 Ry
     estimated scf accuracy    <       0.00041144 Ry

     total magnetization       =     2.22 Bohr mag/cell
     absolute magnetization    =     2.38 Bohr mag/cell

     iteration #  7     ecut=    50.00 Ry     beta=0.70
     Davidson diagonalization with overlap
     ethr =  2.57E-06,  avg # of iterations =  2.4

     negative rho (up, down):  0.000E+00 1.896E-04

     Magnetic moment per site:
     atom:    1    charge:   14.4379    magn:    2.2283    constr:    0.0000

     total cpu time spent up to now is       28.8 secs

     total energy              =    -329.26092313 Ry
     Harris-Foulkes estimate   =    -329.26014908 Ry
     estimated scf accuracy    <       0.00046413 Ry

     total magnetization       =     2.12 Bohr mag/cell
     absolute magnetization    =     2.24 Bohr mag/cell

     iteration #  8     ecut=    50.00 Ry     beta=0.70
     Davidson diagonalization with overlap
     ethr =  2.57E-06,  avg # of iterations =  1.6

     negative rho (up, down):  0.000E+00 1.864E-04

     Magnetic moment per site:
     atom:    1    charge:   14.4387    magn:    2.2211    constr:    0.0000

     total cpu time spent up to now is       31.4 secs

     total energy              =    -329.26114412 Ry
     Harris-Foulkes estimate   =    -329.26113595 Ry
     estimated scf accuracy    <       0.00001105 Ry

     total magnetization       =     2.16 Bohr mag/cell
     absolute magnetization    =     2.30 Bohr mag/cell

     iteration #  9     ecut=    50.00 Ry     beta=0.70
     Davidson diagonalization with overlap
     ethr =  6.90E-08,  avg # of iterations =  2.4

     negative rho (up, down):  0.000E+00 1.893E-04

     Magnetic moment per site:
     atom:    1    charge:   14.4389    magn:    2.2242    constr:    0.0000

     total cpu time spent up to now is       34.3 secs

     total energy              =    -329.26114702 Ry
     Harris-Foulkes estimate   =    -329.26114789 Ry
     estimated scf accuracy    <       0.00000313 Ry

     total magnetization       =     2.16 Bohr mag/cell
     absolute magnetization    =     2.29 Bohr mag/cell

     iteration # 10     ecut=    50.00 Ry     beta=0.70
     Davidson diagonalization with overlap
     ethr =  1.95E-08,  avg # of iterations =  1.3

     negative rho (up, down):  0.000E+00 1.855E-04

     Magnetic moment per site:
     atom:    1    charge:   14.4386    magn:    2.2130    constr:    0.0000

     total cpu time spent up to now is       36.9 secs

     total energy              =    -329.26114914 Ry
     Harris-Foulkes estimate   =    -329.26114728 Ry
     estimated scf accuracy    <       0.00000348 Ry

     total magnetization       =     2.16 Bohr mag/cell
     absolute magnetization    =     2.29 Bohr mag/cell

     iteration # 11     ecut=    50.00 Ry     beta=0.70
     Davidson diagonalization with overlap
     ethr =  1.95E-08,  avg # of iterations =  1.6

     negative rho (up, down):  0.000E+00 1.855E-04

     Magnetic moment per site:
     atom:    1    charge:   14.4386    magn:    2.2127    constr:    0.0000

     total cpu time spent up to now is       39.8 secs

     total energy              =    -329.26115140 Ry
     Harris-Foulkes estimate   =    -329.26115105 Ry
     estimated scf accuracy    <       0.00000003 Ry

     total magnetization       =     2.16 Bohr mag/cell
     absolute magnetization    =     2.29 Bohr mag/cell

     iteration # 12     ecut=    50.00 Ry     beta=0.70
     Davidson diagonalization with overlap
     ethr =  2.02E-10,  avg # of iterations =  2.9

     negative rho (up, down):  0.000E+00 1.854E-04

     Magnetic moment per site:
     atom:    1    charge:   14.4386    magn:    2.2121    constr:    0.0000

     total cpu time spent up to now is       42.9 secs

     total energy              =    -329.26115148 Ry
     Harris-Foulkes estimate   =    -329.26115143 Ry
     estimated scf accuracy    <       0.00000003 Ry

     total magnetization       =     2.16 Bohr mag/cell
     absolute magnetization    =     2.29 Bohr mag/cell

     iteration # 13     ecut=    50.00 Ry     beta=0.70
     Davidson diagonalization with overlap
     ethr =  1.61E-10,  avg # of iterations =  1.5

     negative rho (up, down):  0.000E+00 1.852E-04

     Magnetic moment per site:
     atom:    1    charge:   14.4386    magn:    2.2118    constr:    0.0000

     total cpu time spent up to now is       45.3 secs

     total energy              =    -329.26115151 Ry
     Harris-Foulkes estimate   =    -329.26115149 Ry
     estimated scf accuracy    <       0.00000002 Ry

     total magnetization       =     2.16 Bohr mag/cell
     absolute magnetization    =     2.29 Bohr mag/cell

     iteration # 14     ecut=    50.00 Ry     beta=0.70
     Davidson diagonalization with overlap
     ethr =  1.41E-10,  avg # of iterations =  1.5

     negative rho (up, down):  0.000E+00 1.852E-04

     Magnetic moment per site:
     atom:    1    charge:   14.4386    magn:    2.2118    constr:    0.0000

     total cpu time spent up to now is       48.0 secs

     End of self-consistent calculation

     Number of k-points >= 100: set verbosity='high' to print the bands.

     the Fermi energy is    17.0823 ev

!    total energy              =    -329.26115152 Ry
     Harris-Foulkes estimate   =    -329.26115152 Ry
     estimated scf accuracy    <          8.3E-10 Ry

     total all-electron energy =     -2545.557687 Ry

     The total energy is the sum of the following terms:

     one-electron contribution =    -114.54968713 Ry
     hartree contribution      =      67.17339803 Ry
     xc contribution           =     -34.79288935 Ry
     ewald contribution        =    -170.94380975 Ry
     one-center paw contrib.   =     -76.14953131 Ry
     smearing contrib. (-TS)   =       0.00136798 Ry

     total magnetization       =     2.16 Bohr mag/cell
     absolute magnetization    =     2.29 Bohr mag/cell

     convergence has been achieved in  14 iterations

     Forces acting on atoms (Ry/au):


     negative rho (up, down):  0.000E+00 1.852E-04
     atom    1 type  1   force =     0.00000000    0.00000000    0.00000000

     Total force =     0.000000     Total SCF correction =     0.000000


     entering subroutine stress ...


     negative rho (up, down):  0.000E+00 1.852E-04
          total   stress  (Ry/bohr**3)                   (kbar)     P= -182.40
  -0.00123996   0.00000000  -0.00000000       -182.40      0.00     -0.00
   0.00000000  -0.00123996   0.00000000          0.00   -182.40      0.00
  -0.00000000   0.00000000  -0.00123996         -0.00      0.00   -182.40


     Writing output data file Fe_bcc.save

     init_run     :      2.28s CPU      2.86s WALL (       1 calls)
     electrons    :     41.62s CPU     44.52s WALL (       1 calls)
     forces       :      0.17s CPU      0.17s WALL (       1 calls)
     stress       :      0.60s CPU      0.60s WALL (       1 calls)

     Called by init_run:
     wfcinit      :      1.09s CPU      1.30s WALL (       1 calls)
     potinit      :      0.58s CPU      0.67s WALL (       1 calls)

     Called by electrons:
     c_bands      :     29.02s CPU     31.16s WALL (      14 calls)
     sum_band     :      5.07s CPU      5.32s WALL (      14 calls)
     v_of_rho     :      0.34s CPU      0.38s WALL (      15 calls)
     newd         :      0.24s CPU      0.28s WALL (      15 calls)
     mix_rho      :      0.04s CPU      0.05s WALL (      14 calls)

     Called by c_bands:
     init_us_2    :      0.64s CPU      0.67s WALL (    3472 calls)
     cegterg      :     27.79s CPU     29.85s WALL (    1568 calls)

     Called by *egterg:
     h_psi        :     23.91s CPU     26.05s WALL (    4835 calls)
     s_psi        :      0.63s CPU      0.53s WALL (    4835 calls)
     g_psi        :      0.13s CPU      0.14s WALL (    3155 calls)
     cdiaghg      :      1.49s CPU      1.61s WALL (    4723 calls)

     Called by h_psi:
     add_vuspsi   :      0.67s CPU      0.61s WALL (    4835 calls)

     General routines
     calbec       :      0.73s CPU      0.79s WALL (    6627 calls)
     fft          :      0.18s CPU      0.20s WALL (     499 calls)
     ffts         :      0.02s CPU      0.02s WALL (      58 calls)
     fftw         :     24.21s CPU     26.25s WALL (  109654 calls)
     interpolate  :      0.05s CPU      0.05s WALL (      58 calls)
     davcio       :      0.00s CPU      0.00s WALL (     112 calls)


     PAW routines
     PAW_pot      :      7.46s CPU      7.98s WALL (      15 calls)
     PAW_symme    :      0.02s CPU      0.02s WALL (      29 calls)

     PWSCF        :    45.31s CPU        49.03s WALL


   This run was terminated on:  10:38:25  11May2015            

=------------------------------------------------------------------------------=
   JOB DONE.
=------------------------------------------------------------------------------=
