
     Program PWSCF v.5.1.2 starts on 11May2015 at 10:41:36 

     This program is part of the open-source Quantum ESPRESSO suite
     for quantum simulation of materials; please cite
         "P. Giannozzi et al., J. Phys.:Condens. Matter 21 395502 (2009);
          URL http://www.quantum-espresso.org", 
     in publications or presentations arising from this work. More details at
     http://www.quantum-espresso.org/quote

     Serial version
     Reading input from Fe_bcc_5.41_12.pw.in

     Current dimensions of program PWSCF are:
     Max number of different atomic species (ntypx) = 10
     Max number of k-points (npk) =  40000
     Max angular momentum in pseudopotentials (lmaxx) =  3
               file Fe.pbe-spn-kjpaw_psl.0.2.1.UPF: wavefunction(s)  3D renormalized

     G-vector sticks info
     --------------------
     sticks:   dense  smooth     PW     G-vecs:    dense   smooth      PW
     Sum         411     333    117                 5281     3805     767

     Generating pointlists ...
     new r_m :   0.3572 (alat units)  1.9326 (a.u.) for type    1


     bravais-lattice index     =            3
     lattice parameter (alat)  =       5.4100  a.u.
     unit-cell volume          =      79.1702 (a.u.)^3
     number of atoms/cell      =            1
     number of atomic types    =            1
     number of electrons       =        16.00
     number of Kohn-Sham states=           12
     kinetic-energy cutoff     =      50.0000  Ry
     charge density cutoff     =     250.0000  Ry
     convergence threshold     =      1.0E-08
     mixing beta               =       0.7000
     number of iterations used =            8  plain     mixing
     Exchange-correlation      =  SLA  PW   PBX  PBC ( 1  4  3  4 0 0)

     celldm(1)=   5.410000  celldm(2)=   0.000000  celldm(3)=   0.000000
     celldm(4)=   0.000000  celldm(5)=   0.000000  celldm(6)=   0.000000

     crystal axes: (cart. coord. in units of alat)
               a(1) = (   0.500000   0.500000   0.500000 )  
               a(2) = (  -0.500000   0.500000   0.500000 )  
               a(3) = (  -0.500000  -0.500000   0.500000 )  

     reciprocal axes: (cart. coord. in units 2 pi/alat)
               b(1) = (  1.000000  0.000000  1.000000 )  
               b(2) = ( -1.000000  1.000000  0.000000 )  
               b(3) = (  0.000000 -1.000000  1.000000 )  


     PseudoPot. # 1 for Fe read from file:
     ./Fe.pbe-spn-kjpaw_psl.0.2.1.UPF
     MD5 check sum: a0a08122d52b112de96d1da1d7dd020f
     Pseudo is Projector augmented-wave + core cor, Zval = 16.0
     Generated using "atomic" code by A. Dal Corso  v.5.0.2 svn rev. 9415
     Shape of augmentation charge: PSQ
     Using radial grid of 1191 points,  6 beta functions with: 
                l(1) =   0
                l(2) =   0
                l(3) =   1
                l(4) =   1
                l(5) =   2
                l(6) =   2
     Q(r) pseudized with 0 coefficients 


     atomic species   valence    mass     pseudopotential
        Fe            16.00    55.85000     Fe( 1.00)

     Starting magnetic structure 
     atomic species   magnetization
        Fe           0.700

     48 Sym. Ops., with inversion, found



   Cartesian axes

     site n.     atom                  positions (alat units)
         1           Fe  tau(   1) = (   0.0000000   0.0000000   0.0000000  )

     number of k points=   144  Marzari-Vanderbilt smearing, width (Ry)=  0.0250

     Number of k-points >= 100: set verbosity='high' to print them.

     Dense  grid:     5281 G-vectors     FFT dimensions: (  24,  24,  24)

     Smooth grid:     3805 G-vectors     FFT dimensions: (  24,  24,  24)

     Largest allocated arrays     est. size (Mb)     dimensions
        Kohn-Sham Wavefunctions         0.09 Mb     (     490,   12)
        NL pseudopotentials             0.13 Mb     (     490,   18)
        Each V/rho on FFT grid          0.42 Mb     (   13824,   2)
        Each G-vector array             0.04 Mb     (    5281)
        G-vector shells                 0.00 Mb     (      87)
     Largest temporary arrays     est. size (Mb)     dimensions
        Auxiliary wavefunctions         0.36 Mb     (     490,   48)
        Each subspace H/S matrix        0.04 Mb     (      48,   48)
        Each <psi_i|beta_j> matrix      0.00 Mb     (      18,   12)
        Arrays for rho mixing           1.69 Mb     (   13824,    8)

     Check: negative/imaginary core charge=   -0.000416    0.000000

     Initial potential from superposition of free atoms

     starting charge   15.99956, renormalised to   16.00000
     Starting wfc are   13 randomized atomic wfcs

     total cpu time spent up to now is        3.3 secs

     Self-consistent Calculation

     iteration #  1     ecut=    50.00 Ry     beta=0.70
     Davidson diagonalization with overlap
     ethr =  1.00E-02,  avg # of iterations =  3.1

     negative rho (up, down):  0.000E+00 3.449E-04

     Magnetic moment per site:
     atom:    1    charge:   14.2878    magn:    5.7051    constr:    0.0000

     total cpu time spent up to now is        7.6 secs

     total energy              =    -328.98316383 Ry
     Harris-Foulkes estimate   =    -328.06107877 Ry
     estimated scf accuracy    <       1.50716702 Ry

     total magnetization       =     3.87 Bohr mag/cell
     absolute magnetization    =     3.89 Bohr mag/cell

     iteration #  2     ecut=    50.00 Ry     beta=0.70
     Davidson diagonalization with overlap
     ethr =  9.42E-03,  avg # of iterations =  1.2

     negative rho (up, down):  0.000E+00 3.692E-04

     Magnetic moment per site:
     atom:    1    charge:   14.5157    magn:    3.5170    constr:    0.0000

     total cpu time spent up to now is       11.4 secs

     total energy              =    -329.15882884 Ry
     Harris-Foulkes estimate   =    -329.10081220 Ry
     estimated scf accuracy    <       0.34640422 Ry

     total magnetization       =     3.08 Bohr mag/cell
     absolute magnetization    =     3.20 Bohr mag/cell

     iteration #  3     ecut=    50.00 Ry     beta=0.70
     Davidson diagonalization with overlap
     ethr =  2.17E-03,  avg # of iterations =  2.0

     negative rho (up, down):  0.000E+00 3.742E-04

     Magnetic moment per site:
     atom:    1    charge:   14.4000    magn:    2.5033    constr:    0.0000

     total cpu time spent up to now is       15.2 secs

     total energy              =    -329.18159888 Ry
     Harris-Foulkes estimate   =    -329.34255663 Ry
     estimated scf accuracy    <       0.46937698 Ry

     total magnetization       =     2.52 Bohr mag/cell
     absolute magnetization    =     2.66 Bohr mag/cell

     iteration #  4     ecut=    50.00 Ry     beta=0.70
     Davidson diagonalization with overlap
     ethr =  2.17E-03,  avg # of iterations =  2.0

     negative rho (up, down):  0.000E+00 2.169E-04

     Magnetic moment per site:
     atom:    1    charge:   14.4342    magn:    2.2870    constr:    0.0000

     total cpu time spent up to now is       18.6 secs

     total energy              =    -329.25869999 Ry
     Harris-Foulkes estimate   =    -329.25786479 Ry
     estimated scf accuracy    <       0.00203079 Ry

     total magnetization       =     2.33 Bohr mag/cell
     absolute magnetization    =     2.50 Bohr mag/cell

     iteration #  5     ecut=    50.00 Ry     beta=0.70
     Davidson diagonalization with overlap
     ethr =  1.27E-05,  avg # of iterations =  3.4

     negative rho (up, down):  0.000E+00 2.097E-04

     Magnetic moment per site:
     atom:    1    charge:   14.4214    magn:    2.2708    constr:    0.0000

     total cpu time spent up to now is       23.2 secs

     total energy              =    -329.26203342 Ry
     Harris-Foulkes estimate   =    -329.26176290 Ry
     estimated scf accuracy    <       0.00041071 Ry

     total magnetization       =     2.21 Bohr mag/cell
     absolute magnetization    =     2.35 Bohr mag/cell

     iteration #  6     ecut=    50.00 Ry     beta=0.70
     Davidson diagonalization with overlap
     ethr =  2.57E-06,  avg # of iterations =  1.8

     negative rho (up, down):  0.000E+00 1.476E-04

     Magnetic moment per site:
     atom:    1    charge:   14.4171    magn:    2.1685    constr:    0.0000

     total cpu time spent up to now is       26.7 secs

     total energy              =    -329.26197353 Ry
     Harris-Foulkes estimate   =    -329.26215416 Ry
     estimated scf accuracy    <       0.00023890 Ry

     total magnetization       =     2.19 Bohr mag/cell
     absolute magnetization    =     2.32 Bohr mag/cell

     iteration #  7     ecut=    50.00 Ry     beta=0.70
     Davidson diagonalization with overlap
     ethr =  1.49E-06,  avg # of iterations =  1.9

     negative rho (up, down):  0.000E+00 1.758E-04

     Magnetic moment per site:
     atom:    1    charge:   14.4216    magn:    2.2163    constr:    0.0000

     total cpu time spent up to now is       30.0 secs

     total energy              =    -329.26241298 Ry
     Harris-Foulkes estimate   =    -329.26229995 Ry
     estimated scf accuracy    <       0.00006589 Ry

     total magnetization       =     2.14 Bohr mag/cell
     absolute magnetization    =     2.25 Bohr mag/cell

     iteration #  8     ecut=    50.00 Ry     beta=0.70
     Davidson diagonalization with overlap
     ethr =  4.12E-07,  avg # of iterations =  2.0

     negative rho (up, down):  0.000E+00 1.733E-04

     Magnetic moment per site:
     atom:    1    charge:   14.4228    magn:    2.2044    constr:    0.0000

     total cpu time spent up to now is       34.0 secs

     total energy              =    -329.26245591 Ry
     Harris-Foulkes estimate   =    -329.26244349 Ry
     estimated scf accuracy    <       0.00001602 Ry

     total magnetization       =     2.15 Bohr mag/cell
     absolute magnetization    =     2.27 Bohr mag/cell

     iteration #  9     ecut=    50.00 Ry     beta=0.70
     Davidson diagonalization with overlap
     ethr =  1.00E-07,  avg # of iterations =  1.8

     negative rho (up, down):  0.000E+00 1.685E-04

     Magnetic moment per site:
     atom:    1    charge:   14.4218    magn:    2.1922    constr:    0.0000

     total cpu time spent up to now is       37.0 secs

     total energy              =    -329.26246425 Ry
     Harris-Foulkes estimate   =    -329.26246222 Ry
     estimated scf accuracy    <       0.00000665 Ry

     total magnetization       =     2.15 Bohr mag/cell
     absolute magnetization    =     2.27 Bohr mag/cell

     iteration # 10     ecut=    50.00 Ry     beta=0.70
     Davidson diagonalization with overlap
     ethr =  4.16E-08,  avg # of iterations =  1.5

     negative rho (up, down):  0.000E+00 1.666E-04

     Magnetic moment per site:
     atom:    1    charge:   14.4216    magn:    2.1873    constr:    0.0000

     total cpu time spent up to now is       40.2 secs

     total energy              =    -329.26246819 Ry
     Harris-Foulkes estimate   =    -329.26246748 Ry
     estimated scf accuracy    <       0.00000048 Ry

     total magnetization       =     2.14 Bohr mag/cell
     absolute magnetization    =     2.26 Bohr mag/cell

     iteration # 11     ecut=    50.00 Ry     beta=0.70
     Davidson diagonalization with overlap
     ethr =  3.02E-09,  avg # of iterations =  2.6

     negative rho (up, down):  0.000E+00 1.663E-04

     Magnetic moment per site:
     atom:    1    charge:   14.4216    magn:    2.1861    constr:    0.0000

     total cpu time spent up to now is       43.7 secs

     total energy              =    -329.26246953 Ry
     Harris-Foulkes estimate   =    -329.26246902 Ry
     estimated scf accuracy    <       0.00000002 Ry

     total magnetization       =     2.14 Bohr mag/cell
     absolute magnetization    =     2.26 Bohr mag/cell

     iteration # 12     ecut=    50.00 Ry     beta=0.70
     Davidson diagonalization with overlap
     ethr =  1.04E-10,  avg # of iterations =  2.5

     negative rho (up, down):  0.000E+00 1.663E-04

     Magnetic moment per site:
     atom:    1    charge:   14.4216    magn:    2.1860    constr:    0.0000

     total cpu time spent up to now is       47.6 secs

     End of self-consistent calculation

     Number of k-points >= 100: set verbosity='high' to print the bands.

     the Fermi energy is    17.5776 ev

!    total energy              =    -329.26246979 Ry
     Harris-Foulkes estimate   =    -329.26246962 Ry
     estimated scf accuracy    <          1.9E-09 Ry

     total all-electron energy =     -2545.559005 Ry

     The total energy is the sum of the following terms:

     one-electron contribution =    -112.53535328 Ry
     hartree contribution      =      66.43604139 Ry
     xc contribution           =     -34.80645652 Ry
     ewald contribution        =    -172.20771962 Ry
     one-center paw contrib.   =     -76.15015863 Ry
     smearing contrib. (-TS)   =       0.00117688 Ry

     total magnetization       =     2.14 Bohr mag/cell
     absolute magnetization    =     2.26 Bohr mag/cell

     convergence has been achieved in  12 iterations

     Forces acting on atoms (Ry/au):


     negative rho (up, down):  0.000E+00 1.663E-04
     atom    1 type  1   force =     0.00000000    0.00000000    0.00000000

     Total force =     0.000000     Total SCF correction =     0.000000


     entering subroutine stress ...


     negative rho (up, down):  0.000E+00 1.663E-04
          total   stress  (Ry/bohr**3)                   (kbar)     P= -146.15
  -0.00099350   0.00000000  -0.00000000       -146.15      0.00     -0.00
   0.00000000  -0.00099350   0.00000000          0.00   -146.15      0.00
  -0.00000000   0.00000000  -0.00099350         -0.00      0.00   -146.15


     Writing output data file Fe_bcc.save

     init_run     :      2.47s CPU      2.74s WALL (       1 calls)
     electrons    :     42.53s CPU     44.27s WALL (       1 calls)
     forces       :      0.19s CPU      0.19s WALL (       1 calls)
     stress       :      0.72s CPU      0.74s WALL (       1 calls)

     Called by init_run:
     wfcinit      :      1.30s CPU      1.39s WALL (       1 calls)
     potinit      :      0.65s CPU      0.79s WALL (       1 calls)

     Called by electrons:
     c_bands      :     30.66s CPU     31.42s WALL (      12 calls)
     sum_band     :      5.47s CPU      5.83s WALL (      12 calls)
     v_of_rho     :      0.30s CPU      0.34s WALL (      13 calls)
     newd         :      0.21s CPU      0.23s WALL (      13 calls)
     mix_rho      :      0.04s CPU      0.04s WALL (      12 calls)

     Called by c_bands:
     init_us_2    :      0.68s CPU      0.70s WALL (    3888 calls)
     cegterg      :     29.37s CPU     30.09s WALL (    1728 calls)

     Called by *egterg:
     h_psi        :     25.41s CPU     26.27s WALL (    5608 calls)
     s_psi        :      0.66s CPU      0.56s WALL (    5608 calls)
     g_psi        :      0.14s CPU      0.14s WALL (    3736 calls)
     cdiaghg      :      1.62s CPU      1.67s WALL (    5464 calls)

     Called by h_psi:
     add_vuspsi   :      0.70s CPU      0.60s WALL (    5608 calls)

     General routines
     calbec       :      0.75s CPU      0.78s WALL (    7624 calls)
     fft          :      0.16s CPU      0.18s WALL (     437 calls)
     ffts         :      0.02s CPU      0.02s WALL (      50 calls)
     fftw         :     25.98s CPU     26.94s WALL (  123260 calls)
     interpolate  :      0.04s CPU      0.05s WALL (      50 calls)
     davcio       :      0.00s CPU      0.01s WALL (     144 calls)


     PAW routines
     PAW_pot      :      6.49s CPU      7.16s WALL (      13 calls)
     PAW_symme    :      0.02s CPU      0.02s WALL (      25 calls)

     PWSCF        :    46.55s CPU        48.80s WALL


   This run was terminated on:  10:42:25  11May2015            

=------------------------------------------------------------------------------=
   JOB DONE.
=------------------------------------------------------------------------------=
