
     Program PWSCF v.5.1.2 starts on 11May2015 at 10:48:38 

     This program is part of the open-source Quantum ESPRESSO suite
     for quantum simulation of materials; please cite
         "P. Giannozzi et al., J. Phys.:Condens. Matter 21 395502 (2009);
          URL http://www.quantum-espresso.org", 
     in publications or presentations arising from this work. More details at
     http://www.quantum-espresso.org/quote

     Serial version
     Reading input from Fe_bcc_5.4_13.pw.in

     Current dimensions of program PWSCF are:
     Max number of different atomic species (ntypx) = 10
     Max number of k-points (npk) =  40000
     Max angular momentum in pseudopotentials (lmaxx) =  3
               file Fe.pbe-spn-kjpaw_psl.0.2.1.UPF: wavefunction(s)  3D renormalized

     G-vector sticks info
     --------------------
     sticks:   dense  smooth     PW     G-vecs:    dense   smooth      PW
     Sum         411     333    103                 5281     3781     683

     Generating pointlists ...
     new r_m :   0.3572 (alat units)  1.9291 (a.u.) for type    1


     bravais-lattice index     =            3
     lattice parameter (alat)  =       5.4000  a.u.
     unit-cell volume          =      78.7320 (a.u.)^3
     number of atoms/cell      =            1
     number of atomic types    =            1
     number of electrons       =        16.00
     number of Kohn-Sham states=           12
     kinetic-energy cutoff     =      50.0000  Ry
     charge density cutoff     =     250.0000  Ry
     convergence threshold     =      1.0E-08
     mixing beta               =       0.7000
     number of iterations used =            8  plain     mixing
     Exchange-correlation      =  SLA  PW   PBX  PBC ( 1  4  3  4 0 0)

     celldm(1)=   5.400000  celldm(2)=   0.000000  celldm(3)=   0.000000
     celldm(4)=   0.000000  celldm(5)=   0.000000  celldm(6)=   0.000000

     crystal axes: (cart. coord. in units of alat)
               a(1) = (   0.500000   0.500000   0.500000 )  
               a(2) = (  -0.500000   0.500000   0.500000 )  
               a(3) = (  -0.500000  -0.500000   0.500000 )  

     reciprocal axes: (cart. coord. in units 2 pi/alat)
               b(1) = (  1.000000  0.000000  1.000000 )  
               b(2) = ( -1.000000  1.000000  0.000000 )  
               b(3) = (  0.000000 -1.000000  1.000000 )  


     PseudoPot. # 1 for Fe read from file:
     ./Fe.pbe-spn-kjpaw_psl.0.2.1.UPF
     MD5 check sum: a0a08122d52b112de96d1da1d7dd020f
     Pseudo is Projector augmented-wave + core cor, Zval = 16.0
     Generated using "atomic" code by A. Dal Corso  v.5.0.2 svn rev. 9415
     Shape of augmentation charge: PSQ
     Using radial grid of 1191 points,  6 beta functions with: 
                l(1) =   0
                l(2) =   0
                l(3) =   1
                l(4) =   1
                l(5) =   2
                l(6) =   2
     Q(r) pseudized with 0 coefficients 


     atomic species   valence    mass     pseudopotential
        Fe            16.00    55.85000     Fe( 1.00)

     Starting magnetic structure 
     atomic species   magnetization
        Fe           0.700

     48 Sym. Ops., with inversion, found



   Cartesian axes

     site n.     atom                  positions (alat units)
         1           Fe  tau(   1) = (   0.0000000   0.0000000   0.0000000  )

     number of k points=   168  Marzari-Vanderbilt smearing, width (Ry)=  0.0250

     Number of k-points >= 100: set verbosity='high' to print them.

     Dense  grid:     5281 G-vectors     FFT dimensions: (  24,  24,  24)

     Smooth grid:     3781 G-vectors     FFT dimensions: (  24,  24,  24)

     Largest allocated arrays     est. size (Mb)     dimensions
        Kohn-Sham Wavefunctions         0.09 Mb     (     479,   12)
        NL pseudopotentials             0.13 Mb     (     479,   18)
        Each V/rho on FFT grid          0.42 Mb     (   13824,   2)
        Each G-vector array             0.04 Mb     (    5281)
        G-vector shells                 0.00 Mb     (      87)
     Largest temporary arrays     est. size (Mb)     dimensions
        Auxiliary wavefunctions         0.35 Mb     (     479,   48)
        Each subspace H/S matrix        0.04 Mb     (      48,   48)
        Each <psi_i|beta_j> matrix      0.00 Mb     (      18,   12)
        Arrays for rho mixing           1.69 Mb     (   13824,    8)

     Check: negative/imaginary core charge=   -0.000421    0.000000

     Initial potential from superposition of free atoms

     starting charge   15.99956, renormalised to   16.00000
     Starting wfc are   13 randomized atomic wfcs

     total cpu time spent up to now is        2.7 secs

     Self-consistent Calculation

     iteration #  1     ecut=    50.00 Ry     beta=0.70
     Davidson diagonalization with overlap
     ethr =  1.00E-02,  avg # of iterations =  3.2

     negative rho (up, down):  0.000E+00 3.393E-04

     Magnetic moment per site:
     atom:    1    charge:   14.2856    magn:    5.6934    constr:    0.0000

     total cpu time spent up to now is        7.1 secs

     total energy              =    -328.98602622 Ry
     Harris-Foulkes estimate   =    -328.05902544 Ry
     estimated scf accuracy    <       1.51179426 Ry

     total magnetization       =     3.85 Bohr mag/cell
     absolute magnetization    =     3.88 Bohr mag/cell

     iteration #  2     ecut=    50.00 Ry     beta=0.70
     Davidson diagonalization with overlap
     ethr =  9.45E-03,  avg # of iterations =  1.2

     negative rho (up, down):  0.000E+00 3.573E-04

     Magnetic moment per site:
     atom:    1    charge:   14.5145    magn:    3.4729    constr:    0.0000

     total cpu time spent up to now is       10.4 secs

     total energy              =    -329.16314299 Ry
     Harris-Foulkes estimate   =    -329.10094404 Ry
     estimated scf accuracy    <       0.34859953 Ry

     total magnetization       =     3.04 Bohr mag/cell
     absolute magnetization    =     3.17 Bohr mag/cell

     iteration #  3     ecut=    50.00 Ry     beta=0.70
     Davidson diagonalization with overlap
     ethr =  2.18E-03,  avg # of iterations =  2.1

     negative rho (up, down):  0.000E+00 3.633E-04

     Magnetic moment per site:
     atom:    1    charge:   14.3977    magn:    2.4782    constr:    0.0000

     total cpu time spent up to now is       14.0 secs

     total energy              =    -329.18133012 Ry
     Harris-Foulkes estimate   =    -329.34514223 Ry
     estimated scf accuracy    <       0.47023799 Ry

     total magnetization       =     2.52 Bohr mag/cell
     absolute magnetization    =     2.66 Bohr mag/cell

     iteration #  4     ecut=    50.00 Ry     beta=0.70
     Davidson diagonalization with overlap
     ethr =  2.18E-03,  avg # of iterations =  2.0

     negative rho (up, down):  0.000E+00 2.081E-04

     Magnetic moment per site:
     atom:    1    charge:   14.4277    magn:    2.2599    constr:    0.0000

     total cpu time spent up to now is       17.5 secs

     total energy              =    -329.25849542 Ry
     Harris-Foulkes estimate   =    -329.25760707 Ry
     estimated scf accuracy    <       0.00209085 Ry

     total magnetization       =     2.30 Bohr mag/cell
     absolute magnetization    =     2.47 Bohr mag/cell

     iteration #  5     ecut=    50.00 Ry     beta=0.70
     Davidson diagonalization with overlap
     ethr =  1.31E-05,  avg # of iterations =  3.4

     negative rho (up, down):  0.000E+00 1.946E-04

     Magnetic moment per site:
     atom:    1    charge:   14.4178    magn:    2.2269    constr:    0.0000

     total cpu time spent up to now is       22.2 secs

     total energy              =    -329.26203613 Ry
     Harris-Foulkes estimate   =    -329.26174962 Ry
     estimated scf accuracy    <       0.00052892 Ry

     total magnetization       =     2.16 Bohr mag/cell
     absolute magnetization    =     2.31 Bohr mag/cell

     iteration #  6     ecut=    50.00 Ry     beta=0.70
     Davidson diagonalization with overlap
     ethr =  3.31E-06,  avg # of iterations =  1.7

     negative rho (up, down):  0.000E+00 1.208E-04

     Magnetic moment per site:
     atom:    1    charge:   14.4115    magn:    2.0987    constr:    0.0000

     total cpu time spent up to now is       25.7 secs

     total energy              =    -329.26184255 Ry
     Harris-Foulkes estimate   =    -329.26222765 Ry
     estimated scf accuracy    <       0.00030865 Ry

     total magnetization       =     2.13 Bohr mag/cell
     absolute magnetization    =     2.27 Bohr mag/cell

     iteration #  7     ecut=    50.00 Ry     beta=0.70
     Davidson diagonalization with overlap
     ethr =  1.93E-06,  avg # of iterations =  2.1

     negative rho (up, down):  0.000E+00 1.606E-04

     Magnetic moment per site:
     atom:    1    charge:   14.4168    magn:    2.1715    constr:    0.0000

     total cpu time spent up to now is       29.4 secs

     total energy              =    -329.26250541 Ry
     Harris-Foulkes estimate   =    -329.26232780 Ry
     estimated scf accuracy    <       0.00011549 Ry

     total magnetization       =     2.08 Bohr mag/cell
     absolute magnetization    =     2.20 Bohr mag/cell

     iteration #  8     ecut=    50.00 Ry     beta=0.70
     Davidson diagonalization with overlap
     ethr =  7.22E-07,  avg # of iterations =  2.0

     negative rho (up, down):  0.000E+00 1.572E-04

     Magnetic moment per site:
     atom:    1    charge:   14.4175    magn:    2.1590    constr:    0.0000

     total cpu time spent up to now is       32.9 secs

     total energy              =    -329.26258946 Ry
     Harris-Foulkes estimate   =    -329.26257128 Ry
     estimated scf accuracy    <       0.00002706 Ry

     total magnetization       =     2.10 Bohr mag/cell
     absolute magnetization    =     2.23 Bohr mag/cell

     iteration #  9     ecut=    50.00 Ry     beta=0.70
     Davidson diagonalization with overlap
     ethr =  1.69E-07,  avg # of iterations =  1.9

     negative rho (up, down):  0.000E+00 1.530E-04

     Magnetic moment per site:
     atom:    1    charge:   14.4167    magn:    2.1448    constr:    0.0000

     total cpu time spent up to now is       36.3 secs

     total energy              =    -329.26259945 Ry
     Harris-Foulkes estimate   =    -329.26259582 Ry
     estimated scf accuracy    <       0.00000996 Ry

     total magnetization       =     2.10 Bohr mag/cell
     absolute magnetization    =     2.22 Bohr mag/cell

     iteration # 10     ecut=    50.00 Ry     beta=0.70
     Davidson diagonalization with overlap
     ethr =  6.23E-08,  avg # of iterations =  1.5

     negative rho (up, down):  0.000E+00 1.505E-04

     Magnetic moment per site:
     atom:    1    charge:   14.4164    magn:    2.1392    constr:    0.0000

     total cpu time spent up to now is       39.6 secs

     total energy              =    -329.26260496 Ry
     Harris-Foulkes estimate   =    -329.26260399 Ry
     estimated scf accuracy    <       0.00000080 Ry

     total magnetization       =     2.09 Bohr mag/cell
     absolute magnetization    =     2.21 Bohr mag/cell

     iteration # 11     ecut=    50.00 Ry     beta=0.70
     Davidson diagonalization with overlap
     ethr =  4.98E-09,  avg # of iterations =  2.3

     negative rho (up, down):  0.000E+00 1.507E-04

     Magnetic moment per site:
     atom:    1    charge:   14.4165    magn:    2.1390    constr:    0.0000

     total cpu time spent up to now is       43.2 secs

     total energy              =    -329.26260626 Ry
     Harris-Foulkes estimate   =    -329.26260577 Ry
     estimated scf accuracy    <       0.00000003 Ry

     total magnetization       =     2.09 Bohr mag/cell
     absolute magnetization    =     2.21 Bohr mag/cell

     iteration # 12     ecut=    50.00 Ry     beta=0.70
     Davidson diagonalization with overlap
     ethr =  2.08E-10,  avg # of iterations =  2.6

     negative rho (up, down):  0.000E+00 1.506E-04

     Magnetic moment per site:
     atom:    1    charge:   14.4165    magn:    2.1386    constr:    0.0000

     total cpu time spent up to now is       47.2 secs

     total energy              =    -329.26260643 Ry
     Harris-Foulkes estimate   =    -329.26260631 Ry
     estimated scf accuracy    <       0.00000002 Ry

     total magnetization       =     2.09 Bohr mag/cell
     absolute magnetization    =     2.21 Bohr mag/cell

     iteration # 13     ecut=    50.00 Ry     beta=0.70
     Davidson diagonalization with overlap
     ethr =  1.19E-10,  avg # of iterations =  1.5

     negative rho (up, down):  0.000E+00 1.502E-04

     Magnetic moment per site:
     atom:    1    charge:   14.4164    magn:    2.1374    constr:    0.0000

     total cpu time spent up to now is       50.4 secs

     total energy              =    -329.26260637 Ry
     Harris-Foulkes estimate   =    -329.26260643 Ry
     estimated scf accuracy    <       0.00000001 Ry

     total magnetization       =     2.09 Bohr mag/cell
     absolute magnetization    =     2.21 Bohr mag/cell

     iteration # 14     ecut=    50.00 Ry     beta=0.70
     Davidson diagonalization with overlap
     ethr =  7.48E-11,  avg # of iterations =  2.0

     negative rho (up, down):  0.000E+00 1.504E-04

     Magnetic moment per site:
     atom:    1    charge:   14.4164    magn:    2.1376    constr:    0.0000

     total cpu time spent up to now is       54.4 secs

     End of self-consistent calculation

     Number of k-points >= 100: set verbosity='high' to print the bands.

     the Fermi energy is    17.7107 ev

!    total energy              =    -329.26260647 Ry
     Harris-Foulkes estimate   =    -329.26260641 Ry
     estimated scf accuracy    <          8.3E-09 Ry

     total all-electron energy =     -2545.559142 Ry

     The total energy is the sum of the following terms:

     one-electron contribution =    -112.01705873 Ry
     hartree contribution      =      66.23554817 Ry
     xc contribution           =     -34.80509012 Ry
     ewald contribution        =    -172.52662280 Ry
     one-center paw contrib.   =     -76.15046784 Ry
     smearing contrib. (-TS)   =       0.00108485 Ry

     total magnetization       =     2.09 Bohr mag/cell
     absolute magnetization    =     2.21 Bohr mag/cell

     convergence has been achieved in  14 iterations

     Forces acting on atoms (Ry/au):


     negative rho (up, down):  0.000E+00 1.504E-04
     atom    1 type  1   force =     0.00000000    0.00000000    0.00000000

     Total force =     0.000000     Total SCF correction =     0.000000


     entering subroutine stress ...


     negative rho (up, down):  0.000E+00 1.504E-04
          total   stress  (Ry/bohr**3)                   (kbar)     P= -142.26
  -0.00096709  -0.00000000   0.00000000       -142.26     -0.00      0.00
  -0.00000000  -0.00096709  -0.00000000         -0.00   -142.26     -0.00
   0.00000000  -0.00000000  -0.00096709          0.00     -0.00   -142.26


     Writing output data file Fe_bcc.save

     init_run     :      2.27s CPU      2.31s WALL (       1 calls)
     electrons    :     51.37s CPU     51.71s WALL (       1 calls)
     forces       :      0.19s CPU      0.20s WALL (       1 calls)
     stress       :      0.76s CPU      0.77s WALL (       1 calls)

     Called by init_run:
     wfcinit      :      1.31s CPU      1.31s WALL (       1 calls)
     potinit      :      0.48s CPU      0.49s WALL (       1 calls)

     Called by electrons:
     c_bands      :     37.79s CPU     37.93s WALL (      14 calls)
     sum_band     :      6.67s CPU      6.74s WALL (      14 calls)
     v_of_rho     :      0.31s CPU      0.31s WALL (      15 calls)
     newd         :      0.21s CPU      0.22s WALL (      15 calls)
     mix_rho      :      0.04s CPU      0.04s WALL (      14 calls)

     Called by c_bands:
     init_us_2    :      0.85s CPU      0.86s WALL (    5208 calls)
     cegterg      :     36.12s CPU     36.22s WALL (    2352 calls)

     Called by *egterg:
     h_psi        :     31.13s CPU     31.33s WALL (    7495 calls)
     s_psi        :      0.78s CPU      0.67s WALL (    7495 calls)
     g_psi        :      0.18s CPU      0.19s WALL (    4975 calls)
     cdiaghg      :      2.01s CPU      2.03s WALL (    7327 calls)

     Called by h_psi:
     add_vuspsi   :      0.78s CPU      0.71s WALL (    7495 calls)

     General routines
     calbec       :      0.89s CPU      0.90s WALL (   10183 calls)
     fft          :      0.16s CPU      0.16s WALL (     499 calls)
     ffts         :      0.02s CPU      0.02s WALL (      58 calls)
     fftw         :     31.76s CPU     31.98s WALL (  166504 calls)
     interpolate  :      0.04s CPU      0.04s WALL (      58 calls)
     davcio       :      0.00s CPU      0.01s WALL (     168 calls)


     PAW routines
     PAW_pot      :      6.80s CPU      6.91s WALL (      15 calls)
     PAW_symme    :      0.02s CPU      0.02s WALL (      29 calls)

     PWSCF        :    55.17s CPU        55.65s WALL


   This run was terminated on:  10:49:34  11May2015            

=------------------------------------------------------------------------------=
   JOB DONE.
=------------------------------------------------------------------------------=
