
     Program PWSCF v.5.1.2 starts on 11May2015 at 10:13:41 

     This program is part of the open-source Quantum ESPRESSO suite
     for quantum simulation of materials; please cite
         "P. Giannozzi et al., J. Phys.:Condens. Matter 21 395502 (2009);
          URL http://www.quantum-espresso.org", 
     in publications or presentations arising from this work. More details at
     http://www.quantum-espresso.org/quote

     Serial version
     Reading input from Fe_bcc_5.39_7.pw.in

     Current dimensions of program PWSCF are:
     Max number of different atomic species (ntypx) = 10
     Max number of k-points (npk) =  40000
     Max angular momentum in pseudopotentials (lmaxx) =  3
               file Fe.pbe-spn-kjpaw_psl.0.2.1.UPF: wavefunction(s)  3D renormalized

     G-vector sticks info
     --------------------
     sticks:   dense  smooth     PW     G-vecs:    dense   smooth      PW
     Sum         411     333    103                 5233     3781     683

     Generating pointlists ...
     new r_m :   0.3572 (alat units)  1.9255 (a.u.) for type    1


     bravais-lattice index     =            3
     lattice parameter (alat)  =       5.3900  a.u.
     unit-cell volume          =      78.2954 (a.u.)^3
     number of atoms/cell      =            1
     number of atomic types    =            1
     number of electrons       =        16.00
     number of Kohn-Sham states=           12
     kinetic-energy cutoff     =      50.0000  Ry
     charge density cutoff     =     250.0000  Ry
     convergence threshold     =      1.0E-08
     mixing beta               =       0.7000
     number of iterations used =            8  plain     mixing
     Exchange-correlation      =  SLA  PW   PBX  PBC ( 1  4  3  4 0 0)

     celldm(1)=   5.390000  celldm(2)=   0.000000  celldm(3)=   0.000000
     celldm(4)=   0.000000  celldm(5)=   0.000000  celldm(6)=   0.000000

     crystal axes: (cart. coord. in units of alat)
               a(1) = (   0.500000   0.500000   0.500000 )  
               a(2) = (  -0.500000   0.500000   0.500000 )  
               a(3) = (  -0.500000  -0.500000   0.500000 )  

     reciprocal axes: (cart. coord. in units 2 pi/alat)
               b(1) = (  1.000000  0.000000  1.000000 )  
               b(2) = ( -1.000000  1.000000  0.000000 )  
               b(3) = (  0.000000 -1.000000  1.000000 )  


     PseudoPot. # 1 for Fe read from file:
     ./Fe.pbe-spn-kjpaw_psl.0.2.1.UPF
     MD5 check sum: a0a08122d52b112de96d1da1d7dd020f
     Pseudo is Projector augmented-wave + core cor, Zval = 16.0
     Generated using "atomic" code by A. Dal Corso  v.5.0.2 svn rev. 9415
     Shape of augmentation charge: PSQ
     Using radial grid of 1191 points,  6 beta functions with: 
                l(1) =   0
                l(2) =   0
                l(3) =   1
                l(4) =   1
                l(5) =   2
                l(6) =   2
     Q(r) pseudized with 0 coefficients 


     atomic species   valence    mass     pseudopotential
        Fe            16.00    55.85000     Fe( 1.00)

     Starting magnetic structure 
     atomic species   magnetization
        Fe           0.700

     48 Sym. Ops., with inversion, found



   Cartesian axes

     site n.     atom                  positions (alat units)
         1           Fe  tau(   1) = (   0.0000000   0.0000000   0.0000000  )

     number of k points=    40  Marzari-Vanderbilt smearing, width (Ry)=  0.0250
                       cart. coord. in units 2pi/alat
        k(    1) = (   0.0000000   0.0000000   0.0000000), wk =   0.0029155
        k(    2) = (   0.0000000  -0.1428571   0.1428571), wk =   0.0349854
        k(    3) = (   0.0000000  -0.2857143   0.2857143), wk =   0.0349854
        k(    4) = (   0.0000000  -0.4285714   0.4285714), wk =   0.0349854
        k(    5) = (  -0.1428571  -0.1428571   0.2857143), wk =   0.0699708
        k(    6) = (  -0.1428571  -0.2857143   0.4285714), wk =   0.1399417
        k(    7) = (  -0.1428571   0.5714286  -0.4285714), wk =   0.0699708
        k(    8) = (  -0.2857143   0.7142857  -0.4285714), wk =   0.0699708
        k(    9) = (   0.0000000   0.0000000   0.2857143), wk =   0.0174927
        k(   10) = (   0.0000000  -0.1428571   0.4285714), wk =   0.0699708
        k(   11) = (   0.0000000  -0.2857143   0.5714286), wk =   0.0699708
        k(   12) = (  -0.1428571  -0.1428571   0.5714286), wk =   0.0699708
        k(   13) = (  -0.1428571   0.7142857  -0.2857143), wk =   0.0699708
        k(   14) = (  -0.2857143   0.2857143   0.2857143), wk =   0.0233236
        k(   15) = (   0.5714286  -0.5714286   0.2857143), wk =   0.0699708
        k(   16) = (   0.4285714  -0.5714286   0.4285714), wk =   0.0233236
        k(   17) = (   0.0000000   0.0000000   0.5714286), wk =   0.0174927
        k(   18) = (   0.0000000  -0.1428571   0.7142857), wk =   0.0699708
        k(   19) = (  -0.1428571   0.8571429  -0.1428571), wk =   0.0233236
        k(   20) = (   0.0000000   0.0000000   0.8571429), wk =   0.0174927
        k(   21) = (   0.0000000   0.0000000   0.0000000), wk =   0.0029155
        k(   22) = (   0.0000000  -0.1428571   0.1428571), wk =   0.0349854
        k(   23) = (   0.0000000  -0.2857143   0.2857143), wk =   0.0349854
        k(   24) = (   0.0000000  -0.4285714   0.4285714), wk =   0.0349854
        k(   25) = (  -0.1428571  -0.1428571   0.2857143), wk =   0.0699708
        k(   26) = (  -0.1428571  -0.2857143   0.4285714), wk =   0.1399417
        k(   27) = (  -0.1428571   0.5714286  -0.4285714), wk =   0.0699708
        k(   28) = (  -0.2857143   0.7142857  -0.4285714), wk =   0.0699708
        k(   29) = (   0.0000000   0.0000000   0.2857143), wk =   0.0174927
        k(   30) = (   0.0000000  -0.1428571   0.4285714), wk =   0.0699708
        k(   31) = (   0.0000000  -0.2857143   0.5714286), wk =   0.0699708
        k(   32) = (  -0.1428571  -0.1428571   0.5714286), wk =   0.0699708
        k(   33) = (  -0.1428571   0.7142857  -0.2857143), wk =   0.0699708
        k(   34) = (  -0.2857143   0.2857143   0.2857143), wk =   0.0233236
        k(   35) = (   0.5714286  -0.5714286   0.2857143), wk =   0.0699708
        k(   36) = (   0.4285714  -0.5714286   0.4285714), wk =   0.0233236
        k(   37) = (   0.0000000   0.0000000   0.5714286), wk =   0.0174927
        k(   38) = (   0.0000000  -0.1428571   0.7142857), wk =   0.0699708
        k(   39) = (  -0.1428571   0.8571429  -0.1428571), wk =   0.0233236
        k(   40) = (   0.0000000   0.0000000   0.8571429), wk =   0.0174927

     Dense  grid:     5233 G-vectors     FFT dimensions: (  24,  24,  24)

     Smooth grid:     3781 G-vectors     FFT dimensions: (  24,  24,  24)

     Largest allocated arrays     est. size (Mb)     dimensions
        Kohn-Sham Wavefunctions         0.09 Mb     (     474,   12)
        NL pseudopotentials             0.13 Mb     (     474,   18)
        Each V/rho on FFT grid          0.42 Mb     (   13824,   2)
        Each G-vector array             0.04 Mb     (    5233)
        G-vector shells                 0.00 Mb     (      86)
     Largest temporary arrays     est. size (Mb)     dimensions
        Auxiliary wavefunctions         0.35 Mb     (     474,   48)
        Each subspace H/S matrix        0.04 Mb     (      48,   48)
        Each <psi_i|beta_j> matrix      0.00 Mb     (      18,   12)
        Arrays for rho mixing           1.69 Mb     (   13824,    8)

     Check: negative/imaginary core charge=   -0.000419    0.000000

     Initial potential from superposition of free atoms

     starting charge   15.99956, renormalised to   16.00000
     Starting wfc are   13 randomized atomic wfcs

     total cpu time spent up to now is        1.9 secs

     Self-consistent Calculation

     iteration #  1     ecut=    50.00 Ry     beta=0.70
     Davidson diagonalization with overlap
     ethr =  1.00E-02,  avg # of iterations =  3.4

     negative rho (up, down):  0.000E+00 3.388E-04

     Magnetic moment per site:
     atom:    1    charge:   14.2792    magn:    5.7055    constr:    0.0000

     total cpu time spent up to now is        3.3 secs

     total energy              =    -328.97992466 Ry
     Harris-Foulkes estimate   =    -328.05876077 Ry
     estimated scf accuracy    <       1.50716183 Ry

     total magnetization       =     3.88 Bohr mag/cell
     absolute magnetization    =     3.90 Bohr mag/cell

     iteration #  2     ecut=    50.00 Ry     beta=0.70
     Davidson diagonalization with overlap
     ethr =  9.42E-03,  avg # of iterations =  1.2

     negative rho (up, down):  0.000E+00 3.521E-04

     Magnetic moment per site:
     atom:    1    charge:   14.5125    magn:    3.4867    constr:    0.0000

     total cpu time spent up to now is        4.6 secs

     total energy              =    -329.16026961 Ry
     Harris-Foulkes estimate   =    -329.09938933 Ry
     estimated scf accuracy    <       0.35523059 Ry

     total magnetization       =     3.03 Bohr mag/cell
     absolute magnetization    =     3.17 Bohr mag/cell

     iteration #  3     ecut=    50.00 Ry     beta=0.70
     Davidson diagonalization with overlap
     ethr =  2.22E-03,  avg # of iterations =  2.1

     negative rho (up, down):  0.000E+00 3.514E-04

     Magnetic moment per site:
     atom:    1    charge:   14.3956    magn:    2.4075    constr:    0.0000

     total cpu time spent up to now is        6.0 secs

     total energy              =    -329.18214444 Ry
     Harris-Foulkes estimate   =    -329.34711020 Ry
     estimated scf accuracy    <       0.49218212 Ry

     total magnetization       =     2.42 Bohr mag/cell
     absolute magnetization    =     2.57 Bohr mag/cell

     iteration #  4     ecut=    50.00 Ry     beta=0.70
     Davidson diagonalization with overlap
     ethr =  2.22E-03,  avg # of iterations =  2.1

     negative rho (up, down):  0.000E+00 2.149E-04

     Magnetic moment per site:
     atom:    1    charge:   14.4182    magn:    2.2632    constr:    0.0000

     total cpu time spent up to now is        7.3 secs

     total energy              =    -329.26011057 Ry
     Harris-Foulkes estimate   =    -329.25879418 Ry
     estimated scf accuracy    <       0.00219848 Ry

     total magnetization       =     2.26 Bohr mag/cell
     absolute magnetization    =     2.43 Bohr mag/cell

     iteration #  5     ecut=    50.00 Ry     beta=0.70
     Davidson diagonalization with overlap
     ethr =  1.37E-05,  avg # of iterations =  3.3

     negative rho (up, down):  0.000E+00 1.966E-04

     Magnetic moment per site:
     atom:    1    charge:   14.4117    magn:    2.2627    constr:    0.0000

     total cpu time spent up to now is        8.9 secs

     total energy              =    -329.26294451 Ry
     Harris-Foulkes estimate   =    -329.26285920 Ry
     estimated scf accuracy    <       0.00055424 Ry

     total magnetization       =     2.22 Bohr mag/cell
     absolute magnetization    =     2.34 Bohr mag/cell

     iteration #  6     ecut=    50.00 Ry     beta=0.70
     Davidson diagonalization with overlap
     ethr =  3.46E-06,  avg # of iterations =  2.1

     negative rho (up, down):  0.000E+00 1.593E-04

     Magnetic moment per site:
     atom:    1    charge:   14.4072    magn:    2.2248    constr:    0.0000

     total cpu time spent up to now is       10.2 secs

     total energy              =    -329.26313522 Ry
     Harris-Foulkes estimate   =    -329.26317938 Ry
     estimated scf accuracy    <       0.00032793 Ry

     total magnetization       =     2.20 Bohr mag/cell
     absolute magnetization    =     2.32 Bohr mag/cell

     iteration #  7     ecut=    50.00 Ry     beta=0.70
     Davidson diagonalization with overlap
     ethr =  2.05E-06,  avg # of iterations =  1.6

     negative rho (up, down):  0.000E+00 1.724E-04

     Magnetic moment per site:
     atom:    1    charge:   14.4125    magn:    2.2272    constr:    0.0000

     total cpu time spent up to now is       11.5 secs

     total energy              =    -329.26334146 Ry
     Harris-Foulkes estimate   =    -329.26329318 Ry
     estimated scf accuracy    <       0.00001532 Ry

     total magnetization       =     2.19 Bohr mag/cell
     absolute magnetization    =     2.29 Bohr mag/cell

     iteration #  8     ecut=    50.00 Ry     beta=0.70
     Davidson diagonalization with overlap
     ethr =  9.58E-08,  avg # of iterations =  2.5

     negative rho (up, down):  0.000E+00 1.689E-04

     Magnetic moment per site:
     atom:    1    charge:   14.4109    magn:    2.2156    constr:    0.0000

     total cpu time spent up to now is       12.8 secs

     total energy              =    -329.26334398 Ry
     Harris-Foulkes estimate   =    -329.26334728 Ry
     estimated scf accuracy    <       0.00002085 Ry

     total magnetization       =     2.19 Bohr mag/cell
     absolute magnetization    =     2.29 Bohr mag/cell

     iteration #  9     ecut=    50.00 Ry     beta=0.70
     Davidson diagonalization with overlap
     ethr =  9.58E-08,  avg # of iterations =  1.6

     negative rho (up, down):  0.000E+00 1.673E-04

     Magnetic moment per site:
     atom:    1    charge:   14.4101    magn:    2.2153    constr:    0.0000

     total cpu time spent up to now is       14.0 secs

     total energy              =    -329.26335474 Ry
     Harris-Foulkes estimate   =    -329.26335212 Ry
     estimated scf accuracy    <       0.00000094 Ry

     total magnetization       =     2.18 Bohr mag/cell
     absolute magnetization    =     2.28 Bohr mag/cell

     iteration # 10     ecut=    50.00 Ry     beta=0.70
     Davidson diagonalization with overlap
     ethr =  5.90E-09,  avg # of iterations =  2.3

     negative rho (up, down):  0.000E+00 1.673E-04

     Magnetic moment per site:
     atom:    1    charge:   14.4101    magn:    2.2147    constr:    0.0000

     total cpu time spent up to now is       15.4 secs

     total energy              =    -329.26335531 Ry
     Harris-Foulkes estimate   =    -329.26335495 Ry
     estimated scf accuracy    <       0.00000019 Ry

     total magnetization       =     2.18 Bohr mag/cell
     absolute magnetization    =     2.28 Bohr mag/cell

     iteration # 11     ecut=    50.00 Ry     beta=0.70
     Davidson diagonalization with overlap
     ethr =  1.17E-09,  avg # of iterations =  1.4

     negative rho (up, down):  0.000E+00 1.676E-04

     Magnetic moment per site:
     atom:    1    charge:   14.4100    magn:    2.2155    constr:    0.0000

     total cpu time spent up to now is       16.6 secs

     total energy              =    -329.26335516 Ry
     Harris-Foulkes estimate   =    -329.26335535 Ry
     estimated scf accuracy    <       0.00000018 Ry

     total magnetization       =     2.18 Bohr mag/cell
     absolute magnetization    =     2.28 Bohr mag/cell

     iteration # 12     ecut=    50.00 Ry     beta=0.70
     Davidson diagonalization with overlap
     ethr =  1.12E-09,  avg # of iterations =  1.0

     negative rho (up, down):  0.000E+00 1.674E-04

     Magnetic moment per site:
     atom:    1    charge:   14.4101    magn:    2.2145    constr:    0.0000

     total cpu time spent up to now is       17.8 secs

     total energy              =    -329.26335534 Ry
     Harris-Foulkes estimate   =    -329.26335517 Ry
     estimated scf accuracy    <       0.00000030 Ry

     total magnetization       =     2.18 Bohr mag/cell
     absolute magnetization    =     2.28 Bohr mag/cell

     iteration # 13     ecut=    50.00 Ry     beta=0.70
     Davidson diagonalization with overlap
     ethr =  1.12E-09,  avg # of iterations =  1.1

     negative rho (up, down):  0.000E+00 1.666E-04

     Magnetic moment per site:
     atom:    1    charge:   14.4101    magn:    2.2120    constr:    0.0000

     total cpu time spent up to now is       18.9 secs

     total energy              =    -329.26335544 Ry
     Harris-Foulkes estimate   =    -329.26335537 Ry
     estimated scf accuracy    <       0.00000016 Ry

     total magnetization       =     2.18 Bohr mag/cell
     absolute magnetization    =     2.28 Bohr mag/cell

     iteration # 14     ecut=    50.00 Ry     beta=0.70
     Davidson diagonalization with overlap
     ethr =  9.76E-10,  avg # of iterations =  1.6

     negative rho (up, down):  0.000E+00 1.666E-04

     Magnetic moment per site:
     atom:    1    charge:   14.4101    magn:    2.2119    constr:    0.0000

     total cpu time spent up to now is       20.1 secs

     End of self-consistent calculation

 ------ SPIN UP ------------


          k = 0.0000 0.0000 0.0000 (   459 PWs)   bands (ev):

   -70.2681 -36.0805 -36.0805 -36.0805   9.3957  15.6180  15.6180  15.6180
    16.5916  16.5916  42.4892  42.4892

          k = 0.0000-0.1429 0.1429 (   471 PWs)   bands (ev):

   -70.2550 -36.1551 -36.1054 -36.0806  10.2094  15.4048  15.5587  16.0508
    16.4499  16.6112  38.2892  41.0497

          k = 0.0000-0.2857 0.2857 (   465 PWs)   bands (ev):

   -70.2242 -36.3179 -36.1601 -36.0804  12.1347  14.9470  15.4816  16.5714
    16.6793  17.1201  31.7205  38.0657

          k = 0.0000-0.4286 0.4286 (   470 PWs)   bands (ev):

   -70.1999 -36.4474 -36.2039 -36.0807  12.9374  14.5991  16.6526  16.7594
    17.5855  18.1084  26.1010  36.1862

          k =-0.1429-0.1429 0.2857 (   467 PWs)   bands (ev):

   -70.2328 -36.2664 -36.1342 -36.0980  11.6534  15.1484  15.1944  16.3626
    16.7434  16.9589  34.9347  36.0444

          k =-0.1429-0.2857 0.4286 (   466 PWs)   bands (ev):

   -70.2052 -36.3897 -36.1998 -36.1043  13.2260  14.7310  15.3830  16.5982
    16.9462  18.6184  28.9813  33.3688

          k =-0.1429 0.5714-0.4286 (   469 PWs)   bands (ev):

   -70.1931 -36.4410 -36.2339 -36.1055  13.3393  14.6081  15.9666  16.7017
    17.3756  20.5253  25.0593  32.4930

          k =-0.2857 0.7143-0.4286 (   473 PWs)   bands (ev):

   -70.1902 -36.3901 -36.2874 -36.1265  14.0833  14.5049  15.0903  16.7923
    17.0983  21.8812  26.8014  28.0241

          k = 0.0000 0.0000 0.2857 (   466 PWs)   bands (ev):

   -70.2419 -36.1706 -36.1303 -36.1303  10.9724  15.6648  15.6648  15.9033
    16.0508  16.8665  37.7129  39.5387

          k = 0.0000-0.1429 0.4286 (   467 PWs)   bands (ev):

   -70.2129 -36.3094 -36.1872 -36.1381  12.6981  15.0580  15.3912  16.2238
    17.0291  17.3326  32.2925  36.6314

          k = 0.0000-0.2857 0.5714 (   466 PWs)   bands (ev):

   -70.1895 -36.4287 -36.2321 -36.1340  13.3583  15.0972  15.1305  16.4676
    18.0501  19.5225  26.4441  34.6794

          k =-0.1429-0.1429 0.5714 (   468 PWs)   bands (ev):

   -70.1881 -36.3792 -36.2598 -36.1634  13.7687  14.3425  15.4916  16.5063
    17.4557  19.5723  29.7513  30.4216

          k =-0.1429 0.7143-0.2857 (   466 PWs)   bands (ev):

   -70.1770 -36.4072 -36.3049 -36.1640  13.8356  14.4439  15.1573  16.8128
    17.7631  22.7788  25.4022  29.2385

          k =-0.2857 0.2857 0.2857 (   474 PWs)   bands (ev):

   -70.2125 -36.3643 -36.1430 -36.1430  13.3670  14.6970  14.6970  16.6833
    16.6833  18.6678  32.3614  32.3614

          k = 0.5714-0.5714 0.2857 (   473 PWs)   bands (ev):

   -70.1960 -36.3927 -36.2284 -36.1493  13.9780  14.4903  15.3715  16.7813
    16.7856  21.3337  26.8743  30.9799

          k = 0.4286-0.5714 0.4286 (   469 PWs)   bands (ev):

   -70.1916 -36.3091 -36.3091 -36.1864  14.3252  14.8358  14.8358  16.8238
    16.8238  25.1775  25.1775  27.1613

          k = 0.0000 0.0000 0.5714 (   462 PWs)   bands (ev):

   -70.1871 -36.3076 -36.2468 -36.2468  13.5183  14.3486  16.3042  16.3042
    17.0500  18.7838  33.1317  33.1317

          k = 0.0000-0.1429 0.7143 (   462 PWs)   bands (ev):

   -70.1665 -36.3867 -36.2945 -36.2532  13.5854  13.8056  16.3904  16.7331
    17.9222  22.0699  27.6452  30.9001

          k =-0.1429 0.8571-0.1429 (   466 PWs)   bands (ev):

   -70.1571 -36.3644 -36.3644 -36.2657  13.4614  13.4614  16.4810  17.7184
    17.7184  25.9808  25.9808  27.3415

          k = 0.0000 0.0000 0.8571 (   474 PWs)   bands (ev):

   -70.1487 -36.3574 -36.3448 -36.3448  13.1311  13.1311  17.6704  17.6704
    17.8772  25.1872  28.3615  28.3615

 ------ SPIN DOWN ----------


          k = 0.0000 0.0000 0.0000 (   459 PWs)   bands (ev):

   -67.6597 -33.5177 -33.5177 -33.5177   9.6002  17.3249  17.3249  17.3249
    19.6315  19.6315  42.2850  42.2850

          k = 0.0000-0.1429 0.1429 (   471 PWs)   bands (ev):

   -67.6454 -33.6004 -33.5450 -33.5179  10.4220  17.0738  17.2588  17.7927
    19.3899  19.6543  38.6177  41.1057

          k = 0.0000-0.2857 0.2857 (   465 PWs)   bands (ev):

   -67.6121 -33.7810 -33.6050 -33.5178  12.5190  16.5404  17.0448  18.9607
    19.2457  19.7454  32.4604  38.2181

          k = 0.0000-0.4286 0.4286 (   470 PWs)   bands (ev):

   -67.5856 -33.9244 -33.6530 -33.5181  14.0804  16.1395  17.9559  19.3747
    19.8624  20.0613  27.2559  36.2839

          k =-0.1429-0.1429 0.2857 (   467 PWs)   bands (ev):

   -67.6214 -33.7238 -33.5768 -33.5371  11.9199  16.8009  16.8649  18.7282
    19.1290  19.7924  35.4841  36.5243

          k =-0.1429-0.2857 0.4286 (   466 PWs)   bands (ev):

   -67.5914 -33.8602 -33.6490 -33.5441  14.0178  16.3113  16.7635  19.1935
    19.7885  20.4208  29.8483  33.9051

          k =-0.1429 0.5714-0.4286 (   469 PWs)   bands (ev):

   -67.5781 -33.9172 -33.6864 -33.5455  14.6465  16.1239  17.3923  19.3475
    19.9052  21.7754  26.3117  33.0181

          k =-0.2857 0.7143-0.4286 (   473 PWs)   bands (ev):

   -67.5750 -33.8604 -33.7463 -33.5682  15.3551  16.0935  16.4985  19.3669
    19.7439  23.1817  27.7585  28.7975

          k = 0.0000 0.0000 0.2857 (   466 PWs)   bands (ev):

   -67.6313 -33.6183 -33.5724 -33.5724  11.2076  17.3319  17.3319  17.7977
    18.7097  19.9425  38.0865  39.9425

          k = 0.0000-0.1429 0.4286 (   467 PWs)   bands (ev):

   -67.5998 -33.7715 -33.6348 -33.5813  13.1728  17.0109  17.0582  18.4211
    18.8587  20.1986  33.0332  37.1956

          k = 0.0000-0.2857 0.5714 (   466 PWs)   bands (ev):

   -67.5744 -33.9032 -33.6842 -33.5769  14.6616  16.6726  16.9265  18.8178
    19.9962  21.2515  27.5317  35.2323

          k =-0.1429-0.1429 0.5714 (   468 PWs)   bands (ev):

   -67.5729 -33.8483 -33.7151 -33.6091  14.8637  16.3570  17.1350  18.5441
    19.5724  21.4150  30.6562  31.0879

          k =-0.1429 0.7143-0.2857 (   466 PWs)   bands (ev):

   -67.5608 -33.8788 -33.7650 -33.6097  15.5281  16.2714  16.7498  18.9198
    19.8080  23.9857  26.5215  29.9754

          k =-0.2857 0.2857 0.2857 (   474 PWs)   bands (ev):

   -67.5993 -33.8320 -33.5867 -33.5867  13.7807  16.2534  16.2534  19.6336
    19.6336  20.3630  32.9470  32.9470

          k = 0.5714-0.5714 0.2857 (   473 PWs)   bands (ev):

   -67.5813 -33.8635 -33.6811 -33.5940  15.1673  15.9261  16.4614  19.6712
    19.8820  22.5936  27.7872  31.5397

          k = 0.4286-0.5714 0.4286 (   469 PWs)   bands (ev):

   -67.5765 -33.7709 -33.7709 -33.6349  15.6487  16.0956  16.0956  19.8625
    19.8625  26.0696  26.0696  27.9861

          k = 0.0000 0.0000 0.5714 (   462 PWs)   bands (ev):

   -67.5718 -33.7699 -33.7005 -33.7005  14.5536  16.6954  17.9713  17.9713
    18.8954  20.9522  33.7065  33.7065

          k = 0.0000-0.1429 0.7143 (   462 PWs)   bands (ev):

   -67.5494 -33.8558 -33.7532 -33.7082  15.3706  15.8441  18.0794  18.5386
    19.8539  23.3207  28.4842  31.4104

          k =-0.1429 0.8571-0.1429 (   466 PWs)   bands (ev):

   -67.5392 -33.8304 -33.8304 -33.7217  15.4587  15.4587  18.1380  19.6218
    19.6218  26.8452  26.8452  27.9773

          k = 0.0000 0.0000 0.8571 (   474 PWs)   bands (ev):

   -67.5298 -33.8227 -33.8085 -33.8085  15.1009  15.1861  19.5333  19.5333
    19.8102  25.8786  28.7398  28.7398

     the Fermi energy is    17.8718 ev

!    total energy              =    -329.26335562 Ry
     Harris-Foulkes estimate   =    -329.26335558 Ry
     estimated scf accuracy    <          2.5E-09 Ry

     total all-electron energy =     -2545.559891 Ry

     The total energy is the sum of the following terms:

     one-electron contribution =    -111.49710162 Ry
     hartree contribution      =      66.04468276 Ry
     xc contribution           =     -34.81398205 Ry
     ewald contribution        =    -172.84670930 Ry
     one-center paw contrib.   =     -76.15073712 Ry
     smearing contrib. (-TS)   =       0.00049172 Ry

     total magnetization       =     2.18 Bohr mag/cell
     absolute magnetization    =     2.27 Bohr mag/cell

     convergence has been achieved in  14 iterations

     Forces acting on atoms (Ry/au):


     negative rho (up, down):  0.000E+00 1.666E-04
     atom    1 type  1   force =     0.00000000    0.00000000    0.00000000

     Total force =     0.000000     Total SCF correction =     0.000000


     entering subroutine stress ...


     negative rho (up, down):  0.000E+00 1.666E-04
          total   stress  (Ry/bohr**3)                   (kbar)     P= -120.07
  -0.00081623   0.00000000  -0.00000000       -120.07      0.00     -0.00
   0.00000000  -0.00081623   0.00000000          0.00   -120.07      0.00
  -0.00000000   0.00000000  -0.00081623         -0.00      0.00   -120.07


     Writing output data file Fe_bcc.save

     init_run     :      1.45s CPU      1.51s WALL (       1 calls)
     electrons    :     17.94s CPU     18.26s WALL (       1 calls)
     forces       :      0.10s CPU      0.10s WALL (       1 calls)
     stress       :      0.35s CPU      0.37s WALL (       1 calls)

     Called by init_run:
     wfcinit      :      0.32s CPU      0.33s WALL (       1 calls)
     potinit      :      0.59s CPU      0.63s WALL (       1 calls)

     Called by electrons:
     c_bands      :      8.88s CPU      8.97s WALL (      14 calls)
     sum_band     :      1.94s CPU      1.98s WALL (      14 calls)
     v_of_rho     :      0.32s CPU      0.33s WALL (      15 calls)
     newd         :      0.22s CPU      0.23s WALL (      15 calls)
     mix_rho      :      0.04s CPU      0.04s WALL (      14 calls)

     Called by c_bands:
     init_us_2    :      0.21s CPU      0.21s WALL (    1240 calls)
     cegterg      :      8.48s CPU      8.56s WALL (     560 calls)

     Called by *egterg:
     h_psi        :      7.34s CPU      7.44s WALL (    1683 calls)
     s_psi        :      0.20s CPU      0.16s WALL (    1683 calls)
     g_psi        :      0.04s CPU      0.04s WALL (    1083 calls)
     cdiaghg      :      0.44s CPU      0.45s WALL (    1643 calls)

     Called by h_psi:
     add_vuspsi   :      0.20s CPU      0.18s WALL (    1683 calls)

     General routines
     calbec       :      0.22s CPU      0.22s WALL (    2323 calls)
     fft          :      0.17s CPU      0.17s WALL (     499 calls)
     ffts         :      0.02s CPU      0.02s WALL (      58 calls)
     fftw         :      7.56s CPU      7.68s WALL (   38212 calls)
     interpolate  :      0.04s CPU      0.05s WALL (      58 calls)
     davcio       :      0.00s CPU      0.00s WALL (      40 calls)


     PAW routines
     PAW_pot      :      7.09s CPU      7.29s WALL (      15 calls)
     PAW_symme    :      0.02s CPU      0.02s WALL (      29 calls)

     PWSCF        :    20.26s CPU        20.70s WALL


   This run was terminated on:  10:14: 2  11May2015            

=------------------------------------------------------------------------------=
   JOB DONE.
=------------------------------------------------------------------------------=
