
     Program PWSCF v.5.1.2 starts on 11May2015 at 10:14: 2 

     This program is part of the open-source Quantum ESPRESSO suite
     for quantum simulation of materials; please cite
         "P. Giannozzi et al., J. Phys.:Condens. Matter 21 395502 (2009);
          URL http://www.quantum-espresso.org", 
     in publications or presentations arising from this work. More details at
     http://www.quantum-espresso.org/quote

     Serial version
     Reading input from Fe_bcc_5.4_7.pw.in

     Current dimensions of program PWSCF are:
     Max number of different atomic species (ntypx) = 10
     Max number of k-points (npk) =  40000
     Max angular momentum in pseudopotentials (lmaxx) =  3
               file Fe.pbe-spn-kjpaw_psl.0.2.1.UPF: wavefunction(s)  3D renormalized

     G-vector sticks info
     --------------------
     sticks:   dense  smooth     PW     G-vecs:    dense   smooth      PW
     Sum         411     333    103                 5281     3781     683

     Generating pointlists ...
     new r_m :   0.3572 (alat units)  1.9291 (a.u.) for type    1


     bravais-lattice index     =            3
     lattice parameter (alat)  =       5.4000  a.u.
     unit-cell volume          =      78.7320 (a.u.)^3
     number of atoms/cell      =            1
     number of atomic types    =            1
     number of electrons       =        16.00
     number of Kohn-Sham states=           12
     kinetic-energy cutoff     =      50.0000  Ry
     charge density cutoff     =     250.0000  Ry
     convergence threshold     =      1.0E-08
     mixing beta               =       0.7000
     number of iterations used =            8  plain     mixing
     Exchange-correlation      =  SLA  PW   PBX  PBC ( 1  4  3  4 0 0)

     celldm(1)=   5.400000  celldm(2)=   0.000000  celldm(3)=   0.000000
     celldm(4)=   0.000000  celldm(5)=   0.000000  celldm(6)=   0.000000

     crystal axes: (cart. coord. in units of alat)
               a(1) = (   0.500000   0.500000   0.500000 )  
               a(2) = (  -0.500000   0.500000   0.500000 )  
               a(3) = (  -0.500000  -0.500000   0.500000 )  

     reciprocal axes: (cart. coord. in units 2 pi/alat)
               b(1) = (  1.000000  0.000000  1.000000 )  
               b(2) = ( -1.000000  1.000000  0.000000 )  
               b(3) = (  0.000000 -1.000000  1.000000 )  


     PseudoPot. # 1 for Fe read from file:
     ./Fe.pbe-spn-kjpaw_psl.0.2.1.UPF
     MD5 check sum: a0a08122d52b112de96d1da1d7dd020f
     Pseudo is Projector augmented-wave + core cor, Zval = 16.0
     Generated using "atomic" code by A. Dal Corso  v.5.0.2 svn rev. 9415
     Shape of augmentation charge: PSQ
     Using radial grid of 1191 points,  6 beta functions with: 
                l(1) =   0
                l(2) =   0
                l(3) =   1
                l(4) =   1
                l(5) =   2
                l(6) =   2
     Q(r) pseudized with 0 coefficients 


     atomic species   valence    mass     pseudopotential
        Fe            16.00    55.85000     Fe( 1.00)

     Starting magnetic structure 
     atomic species   magnetization
        Fe           0.700

     48 Sym. Ops., with inversion, found



   Cartesian axes

     site n.     atom                  positions (alat units)
         1           Fe  tau(   1) = (   0.0000000   0.0000000   0.0000000  )

     number of k points=    40  Marzari-Vanderbilt smearing, width (Ry)=  0.0250
                       cart. coord. in units 2pi/alat
        k(    1) = (   0.0000000   0.0000000   0.0000000), wk =   0.0029155
        k(    2) = (   0.0000000  -0.1428571   0.1428571), wk =   0.0349854
        k(    3) = (   0.0000000  -0.2857143   0.2857143), wk =   0.0349854
        k(    4) = (   0.0000000  -0.4285714   0.4285714), wk =   0.0349854
        k(    5) = (  -0.1428571  -0.1428571   0.2857143), wk =   0.0699708
        k(    6) = (  -0.1428571  -0.2857143   0.4285714), wk =   0.1399417
        k(    7) = (  -0.1428571   0.5714286  -0.4285714), wk =   0.0699708
        k(    8) = (  -0.2857143   0.7142857  -0.4285714), wk =   0.0699708
        k(    9) = (   0.0000000   0.0000000   0.2857143), wk =   0.0174927
        k(   10) = (   0.0000000  -0.1428571   0.4285714), wk =   0.0699708
        k(   11) = (   0.0000000  -0.2857143   0.5714286), wk =   0.0699708
        k(   12) = (  -0.1428571  -0.1428571   0.5714286), wk =   0.0699708
        k(   13) = (  -0.1428571   0.7142857  -0.2857143), wk =   0.0699708
        k(   14) = (  -0.2857143   0.2857143   0.2857143), wk =   0.0233236
        k(   15) = (   0.5714286  -0.5714286   0.2857143), wk =   0.0699708
        k(   16) = (   0.4285714  -0.5714286   0.4285714), wk =   0.0233236
        k(   17) = (   0.0000000   0.0000000   0.5714286), wk =   0.0174927
        k(   18) = (   0.0000000  -0.1428571   0.7142857), wk =   0.0699708
        k(   19) = (  -0.1428571   0.8571429  -0.1428571), wk =   0.0233236
        k(   20) = (   0.0000000   0.0000000   0.8571429), wk =   0.0174927
        k(   21) = (   0.0000000   0.0000000   0.0000000), wk =   0.0029155
        k(   22) = (   0.0000000  -0.1428571   0.1428571), wk =   0.0349854
        k(   23) = (   0.0000000  -0.2857143   0.2857143), wk =   0.0349854
        k(   24) = (   0.0000000  -0.4285714   0.4285714), wk =   0.0349854
        k(   25) = (  -0.1428571  -0.1428571   0.2857143), wk =   0.0699708
        k(   26) = (  -0.1428571  -0.2857143   0.4285714), wk =   0.1399417
        k(   27) = (  -0.1428571   0.5714286  -0.4285714), wk =   0.0699708
        k(   28) = (  -0.2857143   0.7142857  -0.4285714), wk =   0.0699708
        k(   29) = (   0.0000000   0.0000000   0.2857143), wk =   0.0174927
        k(   30) = (   0.0000000  -0.1428571   0.4285714), wk =   0.0699708
        k(   31) = (   0.0000000  -0.2857143   0.5714286), wk =   0.0699708
        k(   32) = (  -0.1428571  -0.1428571   0.5714286), wk =   0.0699708
        k(   33) = (  -0.1428571   0.7142857  -0.2857143), wk =   0.0699708
        k(   34) = (  -0.2857143   0.2857143   0.2857143), wk =   0.0233236
        k(   35) = (   0.5714286  -0.5714286   0.2857143), wk =   0.0699708
        k(   36) = (   0.4285714  -0.5714286   0.4285714), wk =   0.0233236
        k(   37) = (   0.0000000   0.0000000   0.5714286), wk =   0.0174927
        k(   38) = (   0.0000000  -0.1428571   0.7142857), wk =   0.0699708
        k(   39) = (  -0.1428571   0.8571429  -0.1428571), wk =   0.0233236
        k(   40) = (   0.0000000   0.0000000   0.8571429), wk =   0.0174927

     Dense  grid:     5281 G-vectors     FFT dimensions: (  24,  24,  24)

     Smooth grid:     3781 G-vectors     FFT dimensions: (  24,  24,  24)

     Largest allocated arrays     est. size (Mb)     dimensions
        Kohn-Sham Wavefunctions         0.09 Mb     (     477,   12)
        NL pseudopotentials             0.13 Mb     (     477,   18)
        Each V/rho on FFT grid          0.42 Mb     (   13824,   2)
        Each G-vector array             0.04 Mb     (    5281)
        G-vector shells                 0.00 Mb     (      87)
     Largest temporary arrays     est. size (Mb)     dimensions
        Auxiliary wavefunctions         0.35 Mb     (     477,   48)
        Each subspace H/S matrix        0.04 Mb     (      48,   48)
        Each <psi_i|beta_j> matrix      0.00 Mb     (      18,   12)
        Arrays for rho mixing           1.69 Mb     (   13824,    8)

     Check: negative/imaginary core charge=   -0.000421    0.000000

     Initial potential from superposition of free atoms

     starting charge   15.99956, renormalised to   16.00000
     Starting wfc are   13 randomized atomic wfcs

     total cpu time spent up to now is        1.7 secs

     Self-consistent Calculation

     iteration #  1     ecut=    50.00 Ry     beta=0.70
     Davidson diagonalization with overlap
     ethr =  1.00E-02,  avg # of iterations =  3.3

     negative rho (up, down):  0.000E+00 3.414E-04

     Magnetic moment per site:
     atom:    1    charge:   14.2832    magn:    5.7077    constr:    0.0000

     total cpu time spent up to now is        3.2 secs

     total energy              =    -328.98170473 Ry
     Harris-Foulkes estimate   =    -328.06092066 Ry
     estimated scf accuracy    <       1.50611143 Ry

     total magnetization       =     3.88 Bohr mag/cell
     absolute magnetization    =     3.90 Bohr mag/cell

     iteration #  2     ecut=    50.00 Ry     beta=0.70
     Davidson diagonalization with overlap
     ethr =  9.41E-03,  avg # of iterations =  1.3

     negative rho (up, down):  0.000E+00 3.564E-04

     Magnetic moment per site:
     atom:    1    charge:   14.5165    magn:    3.4969    constr:    0.0000

     total cpu time spent up to now is        4.5 secs

     total energy              =    -329.15991712 Ry
     Harris-Foulkes estimate   =    -329.10037704 Ry
     estimated scf accuracy    <       0.35506754 Ry

     total magnetization       =     3.04 Bohr mag/cell
     absolute magnetization    =     3.17 Bohr mag/cell

     iteration #  3     ecut=    50.00 Ry     beta=0.70
     Davidson diagonalization with overlap
     ethr =  2.22E-03,  avg # of iterations =  2.1

     negative rho (up, down):  0.000E+00 3.573E-04

     Magnetic moment per site:
     atom:    1    charge:   14.3996    magn:    2.4193    constr:    0.0000

     total cpu time spent up to now is        5.9 secs

     total energy              =    -329.18171027 Ry
     Harris-Foulkes estimate   =    -329.34713866 Ry
     estimated scf accuracy    <       0.49327024 Ry

     total magnetization       =     2.43 Bohr mag/cell
     absolute magnetization    =     2.59 Bohr mag/cell

     iteration #  4     ecut=    50.00 Ry     beta=0.70
     Davidson diagonalization with overlap
     ethr =  2.22E-03,  avg # of iterations =  2.0

     negative rho (up, down):  0.000E+00 2.184E-04

     Magnetic moment per site:
     atom:    1    charge:   14.4234    magn:    2.2680    constr:    0.0000

     total cpu time spent up to now is        7.2 secs

     total energy              =    -329.26002310 Ry
     Harris-Foulkes estimate   =    -329.25870678 Ry
     estimated scf accuracy    <       0.00216401 Ry

     total magnetization       =     2.27 Bohr mag/cell
     absolute magnetization    =     2.44 Bohr mag/cell

     iteration #  5     ecut=    50.00 Ry     beta=0.70
     Davidson diagonalization with overlap
     ethr =  1.35E-05,  avg # of iterations =  3.3

     negative rho (up, down):  0.000E+00 2.020E-04

     Magnetic moment per site:
     atom:    1    charge:   14.4161    magn:    2.2672    constr:    0.0000

     total cpu time spent up to now is        8.7 secs

     total energy              =    -329.26293563 Ry
     Harris-Foulkes estimate   =    -329.26281180 Ry
     estimated scf accuracy    <       0.00051605 Ry

     total magnetization       =     2.22 Bohr mag/cell
     absolute magnetization    =     2.35 Bohr mag/cell

     iteration #  6     ecut=    50.00 Ry     beta=0.70
     Davidson diagonalization with overlap
     ethr =  3.23E-06,  avg # of iterations =  2.0

     negative rho (up, down):  0.000E+00 1.634E-04

     Magnetic moment per site:
     atom:    1    charge:   14.4117    magn:    2.2273    constr:    0.0000

     total cpu time spent up to now is       10.0 secs

     total energy              =    -329.26310623 Ry
     Harris-Foulkes estimate   =    -329.26314855 Ry
     estimated scf accuracy    <       0.00031131 Ry

     total magnetization       =     2.21 Bohr mag/cell
     absolute magnetization    =     2.32 Bohr mag/cell

     iteration #  7     ecut=    50.00 Ry     beta=0.70
     Davidson diagonalization with overlap
     ethr =  1.95E-06,  avg # of iterations =  1.6

     negative rho (up, down):  0.000E+00 1.781E-04

     Magnetic moment per site:
     atom:    1    charge:   14.4172    magn:    2.2329    constr:    0.0000

     total cpu time spent up to now is       11.3 secs

     total energy              =    -329.26331883 Ry
     Harris-Foulkes estimate   =    -329.26326738 Ry
     estimated scf accuracy    <       0.00001657 Ry

     total magnetization       =     2.19 Bohr mag/cell
     absolute magnetization    =     2.29 Bohr mag/cell

     iteration #  8     ecut=    50.00 Ry     beta=0.70
     Davidson diagonalization with overlap
     ethr =  1.04E-07,  avg # of iterations =  2.3

     negative rho (up, down):  0.000E+00 1.742E-04

     Magnetic moment per site:
     atom:    1    charge:   14.4155    magn:    2.2211    constr:    0.0000

     total cpu time spent up to now is       12.7 secs

     total energy              =    -329.26332169 Ry
     Harris-Foulkes estimate   =    -329.26332492 Ry
     estimated scf accuracy    <       0.00002150 Ry

     total magnetization       =     2.19 Bohr mag/cell
     absolute magnetization    =     2.29 Bohr mag/cell

     iteration #  9     ecut=    50.00 Ry     beta=0.70
     Davidson diagonalization with overlap
     ethr =  1.04E-07,  avg # of iterations =  1.5

     negative rho (up, down):  0.000E+00 1.726E-04

     Magnetic moment per site:
     atom:    1    charge:   14.4147    magn:    2.2204    constr:    0.0000

     total cpu time spent up to now is       14.0 secs

     total energy              =    -329.26333280 Ry
     Harris-Foulkes estimate   =    -329.26333021 Ry
     estimated scf accuracy    <       0.00000095 Ry

     total magnetization       =     2.18 Bohr mag/cell
     absolute magnetization    =     2.28 Bohr mag/cell

     iteration # 10     ecut=    50.00 Ry     beta=0.70
     Davidson diagonalization with overlap
     ethr =  5.96E-09,  avg # of iterations =  2.4

     negative rho (up, down):  0.000E+00 1.726E-04

     Magnetic moment per site:
     atom:    1    charge:   14.4147    magn:    2.2198    constr:    0.0000

     total cpu time spent up to now is       15.3 secs

     total energy              =    -329.26333343 Ry
     Harris-Foulkes estimate   =    -329.26333304 Ry
     estimated scf accuracy    <       0.00000016 Ry

     total magnetization       =     2.18 Bohr mag/cell
     absolute magnetization    =     2.28 Bohr mag/cell

     iteration # 11     ecut=    50.00 Ry     beta=0.70
     Davidson diagonalization with overlap
     ethr =  1.02E-09,  avg # of iterations =  1.5

     negative rho (up, down):  0.000E+00 1.722E-04

     Magnetic moment per site:
     atom:    1    charge:   14.4146    magn:    2.2185    constr:    0.0000

     total cpu time spent up to now is       16.5 secs

     total energy              =    -329.26333359 Ry
     Harris-Foulkes estimate   =    -329.26333347 Ry
     estimated scf accuracy    <       0.00000015 Ry

     total magnetization       =     2.18 Bohr mag/cell
     absolute magnetization    =     2.28 Bohr mag/cell

     iteration # 12     ecut=    50.00 Ry     beta=0.70
     Davidson diagonalization with overlap
     ethr =  9.66E-10,  avg # of iterations =  1.3

     negative rho (up, down):  0.000E+00 1.720E-04

     Magnetic moment per site:
     atom:    1    charge:   14.4147    magn:    2.2173    constr:    0.0000

     total cpu time spent up to now is       17.6 secs

     total energy              =    -329.26333365 Ry
     Harris-Foulkes estimate   =    -329.26333364 Ry
     estimated scf accuracy    <       0.00000007 Ry

     total magnetization       =     2.18 Bohr mag/cell
     absolute magnetization    =     2.28 Bohr mag/cell

     iteration # 13     ecut=    50.00 Ry     beta=0.70
     Davidson diagonalization with overlap
     ethr =  4.19E-10,  avg # of iterations =  1.9

     negative rho (up, down):  0.000E+00 1.719E-04

     Magnetic moment per site:
     atom:    1    charge:   14.4147    magn:    2.2172    constr:    0.0000

     total cpu time spent up to now is       18.9 secs

     End of self-consistent calculation

 ------ SPIN UP ------------


          k = 0.0000 0.0000 0.0000 (   459 PWs)   bands (ev):

   -70.3843 -36.2011 -36.2011 -36.2011   9.3071  15.5074  15.5074  15.5074
    16.4672  16.4672  42.3135  42.3135

          k = 0.0000-0.1429 0.1429 (   471 PWs)   bands (ev):

   -70.3715 -36.2744 -36.2256 -36.2013  10.1176  15.2961  15.4484  15.9366
    16.3274  16.4867  38.1063  40.8697

          k = 0.0000-0.2857 0.2857 (   465 PWs)   bands (ev):

   -70.3414 -36.4340 -36.2792 -36.2010  12.0384  14.8423  15.3710  16.4495
    16.5540  16.9972  31.5428  37.8912

          k = 0.0000-0.4286 0.4286 (   470 PWs)   bands (ev):

   -70.3177 -36.5612 -36.3223 -36.2014  12.8440  14.4972  16.5293  16.6331
    17.4681  17.9771  25.9308  36.0186

          k =-0.1429-0.1429 0.2857 (   467 PWs)   bands (ev):

   -70.3498 -36.3835 -36.2539 -36.2184  11.5571  15.0411  15.0875  16.2418
    16.6178  16.8373  34.7576  35.8566

          k =-0.1429-0.2857 0.4286 (   476 PWs)   bands (ev):

   -70.3233 -36.5048 -36.3192 -36.2253  13.1265  14.6273  15.2723  16.4762
    16.8193  18.4839  28.8067  33.1695

          k =-0.1429 0.5714-0.4286 (   472 PWs)   bands (ev):

   -70.3112 -36.5552 -36.3519 -36.2259  13.2442  14.5062  15.8497  16.5781
    17.2484  20.3846  24.8903  32.3152

          k =-0.2857 0.7143-0.4286 (   473 PWs)   bands (ev):

   -70.3082 -36.5050 -36.4043 -36.2464  13.9839  14.4021  14.9833  16.6688
    16.9720  21.7355  26.6416  27.8474

          k = 0.0000 0.0000 0.2857 (   466 PWs)   bands (ev):

   -70.3587 -36.2895 -36.2500 -36.2500  10.8781  15.5540  15.5540  15.7858
    15.9367  16.7394  37.5391  39.3423

          k = 0.0000-0.1429 0.4286 (   467 PWs)   bands (ev):

   -70.3304 -36.4257 -36.3059 -36.2577  12.5998  14.9494  15.2830  16.1071
    16.9071  17.2025  32.1140  36.4378

          k = 0.0000-0.2857 0.5714 (   466 PWs)   bands (ev):

   -70.3076 -36.5428 -36.3500 -36.2536  13.2624  14.9914  15.0210  16.3472
    17.9194  19.3886  26.2750  34.4926

          k =-0.1429-0.1429 0.5714 (   468 PWs)   bands (ev):

   -70.3062 -36.4943 -36.3772 -36.2825  13.6687  14.2400  15.3820  16.3878
    17.3287  19.4340  29.5818  30.2421

          k =-0.1429 0.7143-0.2857 (   469 PWs)   bands (ev):

   -70.2954 -36.5219 -36.4216 -36.2834  13.7364  14.3399  15.0505  16.6911
    17.6344  22.6320  25.2334  29.0649

          k =-0.2857 0.2857 0.2857 (   477 PWs)   bands (ev):

   -70.3302 -36.4801 -36.2626 -36.2626  13.2617  14.5939  14.5939  16.5586
    16.5586  18.5325  32.1876  32.1876

          k = 0.5714-0.5714 0.2857 (   473 PWs)   bands (ev):

   -70.3139 -36.5075 -36.3463 -36.2687  13.8790  14.3893  15.2637  16.6560
    16.6591  21.1898  26.7077  30.8122

          k = 0.4286-0.5714 0.4286 (   469 PWs)   bands (ev):

   -70.3096 -36.4255 -36.4255 -36.3051  14.2253  14.7319  14.7319  16.6974
    16.6974  25.0241  25.0241  26.9862

          k = 0.0000 0.0000 0.5714 (   466 PWs)   bands (ev):

   -70.3053 -36.4243 -36.3646 -36.3646  13.4160  14.2455  16.1885  16.1885
    16.9278  18.6434  32.9447  32.9447

          k = 0.0000-0.1429 0.7143 (   464 PWs)   bands (ev):

   -70.2851 -36.5017 -36.4117 -36.3706  13.4883  13.7068  16.2738  16.6134
    17.7926  21.9249  27.4780  30.7158

          k =-0.1429 0.8571-0.1429 (   466 PWs)   bands (ev):

   -70.2759 -36.4799 -36.4799 -36.3830  13.3656  13.3656  16.3640  17.5906
    17.5906  25.8248  25.8248  27.1740

          k = 0.0000 0.0000 0.8571 (   474 PWs)   bands (ev):

   -70.2676 -36.4731 -36.4607 -36.4607  13.0378  13.0381  17.5431  17.5431
    17.7479  25.0338  28.2010  28.2010

 ------ SPIN DOWN ----------


          k = 0.0000 0.0000 0.0000 (   459 PWs)   bands (ev):

   -67.7705 -33.6329 -33.6329 -33.6329   9.5093  17.2161  17.2161  17.2161
    19.5163  19.5163  42.1047  42.1047

          k = 0.0000-0.1429 0.1429 (   471 PWs)   bands (ev):

   -67.7566 -33.7141 -33.6598 -33.6331  10.3278  16.9671  17.1507  17.6804
    19.2764  19.5389  38.4326  40.9234

          k = 0.0000-0.2857 0.2857 (   465 PWs)   bands (ev):

   -67.7240 -33.8914 -33.7187 -33.6330  12.4197  16.4377  16.9384  18.8396
    19.1312  19.6292  32.2802  38.0418

          k = 0.0000-0.4286 0.4286 (   470 PWs)   bands (ev):

   -67.6981 -34.0322 -33.7658 -33.6334  13.9874  16.0397  17.8385  19.2578
    19.7450  19.9317  27.0843  36.1147

          k =-0.1429-0.1429 0.2857 (   467 PWs)   bands (ev):

   -67.7331 -33.8352 -33.6910 -33.6520  11.8209  16.6962  16.7605  18.6088
    19.0166  19.6755  35.3041  36.3353

          k =-0.1429-0.2857 0.4286 (   476 PWs)   bands (ev):

   -67.7041 -33.9695 -33.7628 -33.6595  13.9151  16.2099  16.6568  19.0787
    19.6678  20.2907  29.6714  33.7071

          k =-0.1429 0.5714-0.4286 (   472 PWs)   bands (ev):

   -67.6909 -34.0254 -33.7988 -33.6603  14.5534  16.0240  17.2770  19.2310
    19.7840  21.6349  26.1423  32.8389

          k =-0.2857 0.7143-0.4286 (   473 PWs)   bands (ev):

   -67.6878 -33.9694 -33.8574 -33.6826  15.2567  15.9943  16.3942  19.2500
    19.6240  23.0355  27.5960  28.6195

          k = 0.0000 0.0000 0.2857 (   466 PWs)   bands (ev):

   -67.7427 -33.7316 -33.6866 -33.6866  11.1107  17.2231  17.2231  17.6855
    18.6017  19.8245  37.9096  39.7439

          k = 0.0000-0.1429 0.4286 (   467 PWs)   bands (ev):

   -67.7120 -33.8821 -33.7480 -33.6954  13.0717  16.9046  16.9545  18.3110
    18.7385  20.0773  32.8519  36.9996

          k = 0.0000-0.2857 0.5714 (   466 PWs)   bands (ev):

   -67.6872 -34.0114 -33.7965 -33.6911  14.5670  16.5687  16.8228  18.7038
    19.8671  21.1203  27.3609  35.0421

          k =-0.1429-0.1429 0.5714 (   468 PWs)   bands (ev):

   -67.6856 -33.9575 -33.8268 -33.7227  14.7640  16.2605  17.0279  18.4301
    19.4486  21.2805  30.4836  30.9065

          k =-0.1429 0.7143-0.2857 (   469 PWs)   bands (ev):

   -67.6739 -33.9877 -33.8760 -33.7236  15.4328  16.1728  16.6457  18.8027
    19.6821  23.8378  26.3519  29.7999

          k =-0.2857 0.2857 0.2857 (   477 PWs)   bands (ev):

   -67.7116 -33.9419 -33.7008 -33.7008  13.6727  16.1528  16.1528  19.5174
    19.5174  20.2297  32.7706  32.7706

          k = 0.5714-0.5714 0.2857 (   473 PWs)   bands (ev):

   -67.6939 -33.9724 -33.7933 -33.7078  15.0687  15.8271  16.3553  19.5538
    19.7643  22.4489  27.6183  31.3693

          k = 0.4286-0.5714 0.4286 (   469 PWs)   bands (ev):

   -67.6893 -33.8815 -33.8815 -33.7480  15.5504  15.9934  15.9934  19.7446
    19.7446  25.9134  25.9134  27.8098

          k = 0.0000 0.0000 0.5714 (   466 PWs)   bands (ev):

   -67.6847 -33.8809 -33.8127 -33.8127  14.4498  16.6012  17.8575  17.8575
    18.7750  20.8195  33.5165  33.5165

          k = 0.0000-0.1429 0.7143 (   464 PWs)   bands (ev):

   -67.6628 -33.9650 -33.8646 -33.8200  15.2784  15.7533  17.9647  18.4218
    19.7260  23.1759  28.3146  31.2235

          k =-0.1429 0.8571-0.1429 (   466 PWs)   bands (ev):

   -67.6527 -33.9402 -33.9402 -33.8333  15.3701  15.3701  18.0228  19.4960
    19.4960  26.6869  26.6869  27.8078

          k = 0.0000 0.0000 0.8571 (   474 PWs)   bands (ev):

   -67.6435 -33.9326 -33.9187 -33.9187  15.0150  15.1010  19.4079  19.4079
    19.6826  25.7233  28.5757  28.5757

     the Fermi energy is    17.7469 ev

!    total energy              =    -329.26333371 Ry
     Harris-Foulkes estimate   =    -329.26333369 Ry
     estimated scf accuracy    <          3.4E-09 Ry

     total all-electron energy =     -2545.559869 Ry

     The total energy is the sum of the following terms:

     one-electron contribution =    -112.00773219 Ry
     hartree contribution      =      66.23169071 Ry
     xc contribution           =     -34.81068568 Ry
     ewald contribution        =    -172.52662280 Ry
     one-center paw contrib.   =     -76.15055015 Ry
     smearing contrib. (-TS)   =       0.00056641 Ry

     total magnetization       =     2.18 Bohr mag/cell
     absolute magnetization    =     2.28 Bohr mag/cell

     convergence has been achieved in  13 iterations

     Forces acting on atoms (Ry/au):


     negative rho (up, down):  0.000E+00 1.719E-04
     atom    1 type  1   force =     0.00000000    0.00000000    0.00000000

     Total force =     0.000000     Total SCF correction =     0.000000


     entering subroutine stress ...


     negative rho (up, down):  0.000E+00 1.719E-04
          total   stress  (Ry/bohr**3)                   (kbar)     P= -130.97
  -0.00089035  -0.00000000  -0.00000000       -130.97     -0.00     -0.00
   0.00000000  -0.00089035   0.00000000          0.00   -130.97      0.00
  -0.00000000   0.00000000  -0.00089035         -0.00      0.00   -130.97


     Writing output data file Fe_bcc.save

     init_run     :      1.35s CPU      1.40s WALL (       1 calls)
     electrons    :     16.91s CPU     17.18s WALL (       1 calls)
     forces       :      0.08s CPU      0.09s WALL (       1 calls)
     stress       :      0.38s CPU      0.39s WALL (       1 calls)

     Called by init_run:
     wfcinit      :      0.29s CPU      0.29s WALL (       1 calls)
     potinit      :      0.52s CPU      0.54s WALL (       1 calls)

     Called by electrons:
     c_bands      :      8.56s CPU      8.61s WALL (      13 calls)
     sum_band     :      1.81s CPU      1.85s WALL (      13 calls)
     v_of_rho     :      0.30s CPU      0.31s WALL (      14 calls)
     newd         :      0.21s CPU      0.22s WALL (      14 calls)
     mix_rho      :      0.04s CPU      0.04s WALL (      13 calls)

     Called by c_bands:
     init_us_2    :      0.19s CPU      0.20s WALL (    1160 calls)
     cegterg      :      8.19s CPU      8.23s WALL (     520 calls)

     Called by *egterg:
     h_psi        :      7.03s CPU      7.12s WALL (    1617 calls)
     s_psi        :      0.19s CPU      0.16s WALL (    1617 calls)
     g_psi        :      0.04s CPU      0.04s WALL (    1057 calls)
     cdiaghg      :      0.43s CPU      0.44s WALL (    1577 calls)

     Called by h_psi:
     add_vuspsi   :      0.20s CPU      0.17s WALL (    1617 calls)

     General routines
     calbec       :      0.21s CPU      0.21s WALL (    2217 calls)
     fft          :      0.16s CPU      0.16s WALL (     468 calls)
     ffts         :      0.02s CPU      0.02s WALL (      54 calls)
     fftw         :      7.22s CPU      7.32s WALL (   35890 calls)
     interpolate  :      0.04s CPU      0.04s WALL (      54 calls)
     davcio       :      0.00s CPU      0.00s WALL (      40 calls)


     PAW routines
     PAW_pot      :      6.49s CPU      6.66s WALL (      14 calls)
     PAW_symme    :      0.02s CPU      0.02s WALL (      27 calls)

     PWSCF        :    19.13s CPU        19.49s WALL


   This run was terminated on:  10:14:21  11May2015            

=------------------------------------------------------------------------------=
   JOB DONE.
=------------------------------------------------------------------------------=
