
     Program PWSCF v.5.1.2 starts on 11May2015 at 10:18: 0 

     This program is part of the open-source Quantum ESPRESSO suite
     for quantum simulation of materials; please cite
         "P. Giannozzi et al., J. Phys.:Condens. Matter 21 395502 (2009);
          URL http://www.quantum-espresso.org", 
     in publications or presentations arising from this work. More details at
     http://www.quantum-espresso.org/quote

     Serial version
     Reading input from Fe_bcc_5.41_8.pw.in

     Current dimensions of program PWSCF are:
     Max number of different atomic species (ntypx) = 10
     Max number of k-points (npk) =  40000
     Max angular momentum in pseudopotentials (lmaxx) =  3
               file Fe.pbe-spn-kjpaw_psl.0.2.1.UPF: wavefunction(s)  3D renormalized

     G-vector sticks info
     --------------------
     sticks:   dense  smooth     PW     G-vecs:    dense   smooth      PW
     Sum         411     333    117                 5281     3805     767

     Generating pointlists ...
     new r_m :   0.3572 (alat units)  1.9326 (a.u.) for type    1


     bravais-lattice index     =            3
     lattice parameter (alat)  =       5.4100  a.u.
     unit-cell volume          =      79.1702 (a.u.)^3
     number of atoms/cell      =            1
     number of atomic types    =            1
     number of electrons       =        16.00
     number of Kohn-Sham states=           12
     kinetic-energy cutoff     =      50.0000  Ry
     charge density cutoff     =     250.0000  Ry
     convergence threshold     =      1.0E-08
     mixing beta               =       0.7000
     number of iterations used =            8  plain     mixing
     Exchange-correlation      =  SLA  PW   PBX  PBC ( 1  4  3  4 0 0)

     celldm(1)=   5.410000  celldm(2)=   0.000000  celldm(3)=   0.000000
     celldm(4)=   0.000000  celldm(5)=   0.000000  celldm(6)=   0.000000

     crystal axes: (cart. coord. in units of alat)
               a(1) = (   0.500000   0.500000   0.500000 )  
               a(2) = (  -0.500000   0.500000   0.500000 )  
               a(3) = (  -0.500000  -0.500000   0.500000 )  

     reciprocal axes: (cart. coord. in units 2 pi/alat)
               b(1) = (  1.000000  0.000000  1.000000 )  
               b(2) = ( -1.000000  1.000000  0.000000 )  
               b(3) = (  0.000000 -1.000000  1.000000 )  


     PseudoPot. # 1 for Fe read from file:
     ./Fe.pbe-spn-kjpaw_psl.0.2.1.UPF
     MD5 check sum: a0a08122d52b112de96d1da1d7dd020f
     Pseudo is Projector augmented-wave + core cor, Zval = 16.0
     Generated using "atomic" code by A. Dal Corso  v.5.0.2 svn rev. 9415
     Shape of augmentation charge: PSQ
     Using radial grid of 1191 points,  6 beta functions with: 
                l(1) =   0
                l(2) =   0
                l(3) =   1
                l(4) =   1
                l(5) =   2
                l(6) =   2
     Q(r) pseudized with 0 coefficients 


     atomic species   valence    mass     pseudopotential
        Fe            16.00    55.85000     Fe( 1.00)

     Starting magnetic structure 
     atomic species   magnetization
        Fe           0.700

     48 Sym. Ops., with inversion, found



   Cartesian axes

     site n.     atom                  positions (alat units)
         1           Fe  tau(   1) = (   0.0000000   0.0000000   0.0000000  )

     number of k points=    58  Marzari-Vanderbilt smearing, width (Ry)=  0.0250
                       cart. coord. in units 2pi/alat
        k(    1) = (   0.0000000   0.0000000   0.0000000), wk =   0.0019531
        k(    2) = (   0.0000000  -0.1250000   0.1250000), wk =   0.0234375
        k(    3) = (   0.0000000  -0.2500000   0.2500000), wk =   0.0234375
        k(    4) = (   0.0000000  -0.3750000   0.3750000), wk =   0.0234375
        k(    5) = (   0.0000000   0.5000000  -0.5000000), wk =   0.0117188
        k(    6) = (  -0.1250000  -0.1250000   0.2500000), wk =   0.0468750
        k(    7) = (  -0.1250000  -0.2500000   0.3750000), wk =   0.0937500
        k(    8) = (  -0.1250000   0.6250000  -0.5000000), wk =   0.0937500
        k(    9) = (  -0.2500000   0.7500000  -0.5000000), wk =   0.0468750
        k(   10) = (  -0.2500000   0.6250000  -0.3750000), wk =   0.0468750
        k(   11) = (   0.0000000   0.0000000   0.2500000), wk =   0.0117188
        k(   12) = (   0.0000000  -0.1250000   0.3750000), wk =   0.0468750
        k(   13) = (   0.0000000  -0.2500000   0.5000000), wk =   0.0468750
        k(   14) = (   0.0000000   0.6250000  -0.3750000), wk =   0.0234375
        k(   15) = (  -0.1250000  -0.1250000   0.5000000), wk =   0.0468750
        k(   16) = (  -0.1250000   0.7500000  -0.3750000), wk =   0.0937500
        k(   17) = (  -0.2500000   0.2500000   0.2500000), wk =   0.0156250
        k(   18) = (  -0.2500000   0.7500000  -0.2500000), wk =   0.0156250
        k(   19) = (   0.6250000  -0.6250000   0.2500000), wk =   0.0468750
        k(   20) = (   0.5000000  -0.5000000   0.2500000), wk =   0.0234375
        k(   21) = (   0.5000000  -0.6250000   0.3750000), wk =   0.0468750
        k(   22) = (   0.0000000   0.0000000   0.5000000), wk =   0.0117188
        k(   23) = (   0.0000000  -0.1250000   0.6250000), wk =   0.0468750
        k(   24) = (   0.0000000   0.7500000  -0.2500000), wk =   0.0234375
        k(   25) = (  -0.1250000   0.8750000  -0.2500000), wk =   0.0468750
        k(   26) = (   0.5000000  -0.5000000   0.5000000), wk =   0.0039062
        k(   27) = (   0.0000000   0.0000000   0.7500000), wk =   0.0117188
        k(   28) = (   0.0000000   0.8750000  -0.1250000), wk =   0.0234375
        k(   29) = (   0.0000000   0.0000000  -1.0000000), wk =   0.0019531
        k(   30) = (   0.0000000   0.0000000   0.0000000), wk =   0.0019531
        k(   31) = (   0.0000000  -0.1250000   0.1250000), wk =   0.0234375
        k(   32) = (   0.0000000  -0.2500000   0.2500000), wk =   0.0234375
        k(   33) = (   0.0000000  -0.3750000   0.3750000), wk =   0.0234375
        k(   34) = (   0.0000000   0.5000000  -0.5000000), wk =   0.0117188
        k(   35) = (  -0.1250000  -0.1250000   0.2500000), wk =   0.0468750
        k(   36) = (  -0.1250000  -0.2500000   0.3750000), wk =   0.0937500
        k(   37) = (  -0.1250000   0.6250000  -0.5000000), wk =   0.0937500
        k(   38) = (  -0.2500000   0.7500000  -0.5000000), wk =   0.0468750
        k(   39) = (  -0.2500000   0.6250000  -0.3750000), wk =   0.0468750
        k(   40) = (   0.0000000   0.0000000   0.2500000), wk =   0.0117188
        k(   41) = (   0.0000000  -0.1250000   0.3750000), wk =   0.0468750
        k(   42) = (   0.0000000  -0.2500000   0.5000000), wk =   0.0468750
        k(   43) = (   0.0000000   0.6250000  -0.3750000), wk =   0.0234375
        k(   44) = (  -0.1250000  -0.1250000   0.5000000), wk =   0.0468750
        k(   45) = (  -0.1250000   0.7500000  -0.3750000), wk =   0.0937500
        k(   46) = (  -0.2500000   0.2500000   0.2500000), wk =   0.0156250
        k(   47) = (  -0.2500000   0.7500000  -0.2500000), wk =   0.0156250
        k(   48) = (   0.6250000  -0.6250000   0.2500000), wk =   0.0468750
        k(   49) = (   0.5000000  -0.5000000   0.2500000), wk =   0.0234375
        k(   50) = (   0.5000000  -0.6250000   0.3750000), wk =   0.0468750
        k(   51) = (   0.0000000   0.0000000   0.5000000), wk =   0.0117188
        k(   52) = (   0.0000000  -0.1250000   0.6250000), wk =   0.0468750
        k(   53) = (   0.0000000   0.7500000  -0.2500000), wk =   0.0234375
        k(   54) = (  -0.1250000   0.8750000  -0.2500000), wk =   0.0468750
        k(   55) = (   0.5000000  -0.5000000   0.5000000), wk =   0.0039062
        k(   56) = (   0.0000000   0.0000000   0.7500000), wk =   0.0117188
        k(   57) = (   0.0000000   0.8750000  -0.1250000), wk =   0.0234375
        k(   58) = (   0.0000000   0.0000000  -1.0000000), wk =   0.0019531

     Dense  grid:     5281 G-vectors     FFT dimensions: (  24,  24,  24)

     Smooth grid:     3805 G-vectors     FFT dimensions: (  24,  24,  24)

     Largest allocated arrays     est. size (Mb)     dimensions
        Kohn-Sham Wavefunctions         0.09 Mb     (     490,   12)
        NL pseudopotentials             0.13 Mb     (     490,   18)
        Each V/rho on FFT grid          0.42 Mb     (   13824,   2)
        Each G-vector array             0.04 Mb     (    5281)
        G-vector shells                 0.00 Mb     (      87)
     Largest temporary arrays     est. size (Mb)     dimensions
        Auxiliary wavefunctions         0.36 Mb     (     490,   48)
        Each subspace H/S matrix        0.04 Mb     (      48,   48)
        Each <psi_i|beta_j> matrix      0.00 Mb     (      18,   12)
        Arrays for rho mixing           1.69 Mb     (   13824,    8)

     Check: negative/imaginary core charge=   -0.000416    0.000000

     Initial potential from superposition of free atoms

     starting charge   15.99956, renormalised to   16.00000
     Starting wfc are   13 randomized atomic wfcs

     total cpu time spent up to now is        1.9 secs

     Self-consistent Calculation

     iteration #  1     ecut=    50.00 Ry     beta=0.70
     Davidson diagonalization with overlap
     ethr =  1.00E-02,  avg # of iterations =  3.2

     negative rho (up, down):  0.000E+00 3.497E-04

     Magnetic moment per site:
     atom:    1    charge:   14.2857    magn:    5.7228    constr:    0.0000

     total cpu time spent up to now is        3.9 secs

     total energy              =    -328.97563550 Ry
     Harris-Foulkes estimate   =    -328.06114537 Ry
     estimated scf accuracy    <       1.49999955 Ry

     total magnetization       =     3.91 Bohr mag/cell
     absolute magnetization    =     3.92 Bohr mag/cell

     iteration #  2     ecut=    50.00 Ry     beta=0.70
     Davidson diagonalization with overlap
     ethr =  9.37E-03,  avg # of iterations =  1.2

     negative rho (up, down):  0.000E+00 3.685E-04

     Magnetic moment per site:
     atom:    1    charge:   14.5181    magn:    3.5302    constr:    0.0000

     total cpu time spent up to now is        5.6 secs

     total energy              =    -329.15499779 Ry
     Harris-Foulkes estimate   =    -329.09847632 Ry
     estimated scf accuracy    <       0.35547877 Ry

     total magnetization       =     3.08 Bohr mag/cell
     absolute magnetization    =     3.19 Bohr mag/cell

     iteration #  3     ecut=    50.00 Ry     beta=0.70
     Davidson diagonalization with overlap
     ethr =  2.22E-03,  avg # of iterations =  2.0

     negative rho (up, down):  0.000E+00 3.767E-04

     Magnetic moment per site:
     atom:    1    charge:   14.4016    magn:    2.5082    constr:    0.0000

     total cpu time spent up to now is        7.4 secs

     total energy              =    -329.17954072 Ry
     Harris-Foulkes estimate   =    -329.34526632 Ry
     estimated scf accuracy    <       0.47595271 Ry

     total magnetization       =     2.58 Bohr mag/cell
     absolute magnetization    =     2.71 Bohr mag/cell

     iteration #  4     ecut=    50.00 Ry     beta=0.70
     Davidson diagonalization with overlap
     ethr =  2.22E-03,  avg # of iterations =  2.0

     negative rho (up, down):  0.000E+00 2.273E-04

     Magnetic moment per site:
     atom:    1    charge:   14.4277    magn:    2.3065    constr:    0.0000

     total cpu time spent up to now is        9.1 secs

     total energy              =    -329.25780318 Ry
     Harris-Foulkes estimate   =    -329.25713967 Ry
     estimated scf accuracy    <       0.00193115 Ry

     total magnetization       =     2.32 Bohr mag/cell
     absolute magnetization    =     2.51 Bohr mag/cell

     iteration #  5     ecut=    50.00 Ry     beta=0.70
     Davidson diagonalization with overlap
     ethr =  1.21E-05,  avg # of iterations =  3.4

     negative rho (up, down):  0.000E+00 2.118E-04

     Magnetic moment per site:
     atom:    1    charge:   14.4221    magn:    2.2810    constr:    0.0000

     total cpu time spent up to now is       11.2 secs

     total energy              =    -329.26080666 Ry
     Harris-Foulkes estimate   =    -329.26065302 Ry
     estimated scf accuracy    <       0.00058971 Ry

     total magnetization       =     2.21 Bohr mag/cell
     absolute magnetization    =     2.37 Bohr mag/cell

     iteration #  6     ecut=    50.00 Ry     beta=0.70
     Davidson diagonalization with overlap
     ethr =  3.69E-06,  avg # of iterations =  1.7

     negative rho (up, down):  0.000E+00 1.291E-04

     Magnetic moment per site:
     atom:    1    charge:   14.4167    magn:    2.1301    constr:    0.0000

     total cpu time spent up to now is       12.8 secs

     total energy              =    -329.26048358 Ry
     Harris-Foulkes estimate   =    -329.26097760 Ry
     estimated scf accuracy    <       0.00023598 Ry

     total magnetization       =     2.17 Bohr mag/cell
     absolute magnetization    =     2.33 Bohr mag/cell

     iteration #  7     ecut=    50.00 Ry     beta=0.70
     Davidson diagonalization with overlap
     ethr =  1.47E-06,  avg # of iterations =  2.5

     negative rho (up, down):  0.000E+00 1.607E-04

     Magnetic moment per site:
     atom:    1    charge:   14.4199    magn:    2.1709    constr:    0.0000

     total cpu time spent up to now is       14.7 secs

     total energy              =    -329.26145101 Ry
     Harris-Foulkes estimate   =    -329.26120971 Ry
     estimated scf accuracy    <       0.00012046 Ry

     total magnetization       =     2.07 Bohr mag/cell
     absolute magnetization    =     2.21 Bohr mag/cell

     iteration #  8     ecut=    50.00 Ry     beta=0.70
     Davidson diagonalization with overlap
     ethr =  7.53E-07,  avg # of iterations =  1.5

     negative rho (up, down):  0.000E+00 1.497E-04

     Magnetic moment per site:
     atom:    1    charge:   14.4209    magn:    2.1239    constr:    0.0000

     total cpu time spent up to now is       16.3 secs

     total energy              =    -329.26146674 Ry
     Harris-Foulkes estimate   =    -329.26147980 Ry
     estimated scf accuracy    <       0.00004245 Ry

     total magnetization       =     2.09 Bohr mag/cell
     absolute magnetization    =     2.23 Bohr mag/cell

     iteration #  9     ecut=    50.00 Ry     beta=0.70
     Davidson diagonalization with overlap
     ethr =  2.65E-07,  avg # of iterations =  2.5

     negative rho (up, down):  0.000E+00 1.462E-04

     Magnetic moment per site:
     atom:    1    charge:   14.4203    magn:    2.1116    constr:    0.0000

     total cpu time spent up to now is       18.1 secs

     total energy              =    -329.26154395 Ry
     Harris-Foulkes estimate   =    -329.26152770 Ry
     estimated scf accuracy    <       0.00000401 Ry

     total magnetization       =     2.06 Bohr mag/cell
     absolute magnetization    =     2.20 Bohr mag/cell

     iteration # 10     ecut=    50.00 Ry     beta=0.70
     Davidson diagonalization with overlap
     ethr =  2.51E-08,  avg # of iterations =  2.5

     negative rho (up, down):  0.000E+00 1.409E-04

     Magnetic moment per site:
     atom:    1    charge:   14.4199    magn:    2.0972    constr:    0.0000

     total cpu time spent up to now is       20.0 secs

     total energy              =    -329.26155083 Ry
     Harris-Foulkes estimate   =    -329.26155087 Ry
     estimated scf accuracy    <       0.00000188 Ry

     total magnetization       =     2.05 Bohr mag/cell
     absolute magnetization    =     2.19 Bohr mag/cell

     iteration # 11     ecut=    50.00 Ry     beta=0.70
     Davidson diagonalization with overlap
     ethr =  1.18E-08,  avg # of iterations =  2.0

     negative rho (up, down):  0.000E+00 1.412E-04

     Magnetic moment per site:
     atom:    1    charge:   14.4200    magn:    2.0959    constr:    0.0000

     total cpu time spent up to now is       21.7 secs

     total energy              =    -329.26156187 Ry
     Harris-Foulkes estimate   =    -329.26155736 Ry
     estimated scf accuracy    <       0.00000005 Ry

     total magnetization       =     2.04 Bohr mag/cell
     absolute magnetization    =     2.18 Bohr mag/cell

     iteration # 12     ecut=    50.00 Ry     beta=0.70
     Davidson diagonalization with overlap
     ethr =  2.95E-10,  avg # of iterations =  2.6

     negative rho (up, down):  0.000E+00 1.395E-04

     Magnetic moment per site:
     atom:    1    charge:   14.4200    magn:    2.0904    constr:    0.0000

     total cpu time spent up to now is       23.6 secs

     total energy              =    -329.26156173 Ry
     Harris-Foulkes estimate   =    -329.26156221 Ry
     estimated scf accuracy    <       0.00000009 Ry

     total magnetization       =     2.03 Bohr mag/cell
     absolute magnetization    =     2.17 Bohr mag/cell

     iteration # 13     ecut=    50.00 Ry     beta=0.70
     Davidson diagonalization with overlap
     ethr =  2.95E-10,  avg # of iterations =  2.2

     negative rho (up, down):  0.000E+00 1.408E-04

     Magnetic moment per site:
     atom:    1    charge:   14.4199    magn:    2.0942    constr:    0.0000

     total cpu time spent up to now is       25.3 secs

     total energy              =    -329.26156316 Ry
     Harris-Foulkes estimate   =    -329.26156263 Ry
     estimated scf accuracy    <       0.00000003 Ry

     total magnetization       =     2.03 Bohr mag/cell
     absolute magnetization    =     2.17 Bohr mag/cell

     iteration # 14     ecut=    50.00 Ry     beta=0.70
     Davidson diagonalization with overlap
     ethr =  1.89E-10,  avg # of iterations =  2.1

     negative rho (up, down):  0.000E+00 1.395E-04

     Magnetic moment per site:
     atom:    1    charge:   14.4199    magn:    2.0900    constr:    0.0000

     total cpu time spent up to now is       27.1 secs

     total energy              =    -329.26156302 Ry
     Harris-Foulkes estimate   =    -329.26156336 Ry
     estimated scf accuracy    <       0.00000010 Ry

     total magnetization       =     2.03 Bohr mag/cell
     absolute magnetization    =     2.17 Bohr mag/cell

     iteration # 15     ecut=    50.00 Ry     beta=0.70
     Davidson diagonalization with overlap
     ethr =  1.89E-10,  avg # of iterations =  2.1

     negative rho (up, down):  0.000E+00 1.399E-04

     Magnetic moment per site:
     atom:    1    charge:   14.4199    magn:    2.0910    constr:    0.0000

     total cpu time spent up to now is       28.9 secs

     total energy              =    -329.26156357 Ry
     Harris-Foulkes estimate   =    -329.26156341 Ry
     estimated scf accuracy    <       0.00000001 Ry

     total magnetization       =     2.03 Bohr mag/cell
     absolute magnetization    =     2.17 Bohr mag/cell

     iteration # 16     ecut=    50.00 Ry     beta=0.70
     Davidson diagonalization with overlap
     ethr =  6.80E-11,  avg # of iterations =  2.0

     negative rho (up, down):  0.000E+00 1.398E-04

     Magnetic moment per site:
     atom:    1    charge:   14.4199    magn:    2.0908    constr:    0.0000

     total cpu time spent up to now is       30.5 secs

     End of self-consistent calculation

 ------ SPIN UP ------------


          k = 0.0000 0.0000 0.0000 (   459 PWs)   bands (ev):

   -70.4459 -36.2676 -36.2676 -36.2676   9.2606  15.4616  15.4616  15.4616
    16.3743  16.3743  42.1818  42.1818

          k = 0.0000-0.1250 0.1250 (   471 PWs)   bands (ev):

   -70.4363 -36.3240 -36.2865 -36.2679   9.8845  15.2979  15.4222  15.7912
    16.2549  16.3889  38.7418  41.0727

          k = 0.0000-0.2500 0.2500 (   465 PWs)   bands (ev):

   -70.4117 -36.4552 -36.3305 -36.2676  11.4975  14.9169  15.2445  16.3042
    16.4397  16.6492  33.0462  38.4494

          k = 0.0000-0.3750 0.3750 (   474 PWs)   bands (ev):

   -70.3877 -36.5862 -36.3753 -36.2683  12.7031  14.5546  16.1135  16.5140
    16.6892  17.6211  27.6282  36.3835

          k = 0.0000 0.5000-0.5000 (   476 PWs)   bands (ev):

   -70.3777 -36.6391 -36.3933 -36.2687  12.8108  14.4095  16.5242  16.5522
    18.0686  18.1097  24.6698  35.6326

          k =-0.1250-0.1250 0.2500 (   469 PWs)   bands (ev):

   -70.4190 -36.4141 -36.3074 -36.2812  11.0323  15.1124  15.1157  16.1545
    16.4714  16.4937  35.7498  36.9084

          k =-0.1250-0.2500 0.3750 (   476 PWs)   bands (ev):

   -70.3950 -36.5312 -36.3612 -36.2869  12.6584  14.6962  15.0695  16.3158
    16.6235  17.6926  30.4897  34.2895

          k =-0.1250 0.6250-0.5000 (   473 PWs)   bands (ev):

   -70.3776 -36.6100 -36.4038 -36.2877  13.1147  14.4860  15.7953  16.4962
    17.0679  19.4133  25.7343  33.0265

          k =-0.2500 0.7500-0.5000 (   478 PWs)   bands (ev):

   -70.3778 -36.5719 -36.4246 -36.3070  13.6925  14.3577  15.0296  16.4512
    16.8318  19.8691  28.3803  29.2070

          k =-0.2500 0.6250-0.3750 (   474 PWs)   bands (ev):

   -70.3705 -36.5704 -36.4718 -36.3117  13.8194  14.4580  14.9727  16.6090
    16.9532  22.3993  24.9742  28.2561

          k = 0.0000 0.0000 0.2500 (   482 PWs)   bands (ev):

   -70.4271 -36.3378 -36.3061 -36.3061  10.4767  15.4860  15.4860  15.7927
    15.8507  16.5805  38.0139  39.9270

          k = 0.0000-0.1250 0.3750 (   464 PWs)   bands (ev):

   -70.4029 -36.4509 -36.3506 -36.3117  11.9836  15.0795  15.2404  15.9530
    16.5744  16.8341  33.4821  37.4477

          k = 0.0000-0.2500 0.5000 (   472 PWs)   bands (ev):

   -70.3798 -36.5742 -36.3961 -36.3092  13.0670  14.9225  14.9837  16.3125
    17.5667  17.9927  27.9992  35.4057

          k = 0.0000 0.6250-0.3750 (   472 PWs)   bands (ev):

   -70.3701 -36.6244 -36.4147 -36.3077  13.1252  14.7929  15.2579  16.3045
    18.0298  19.8640  24.7678  34.5762

          k =-0.1250-0.1250 0.5000 (   472 PWs)   bands (ev):

   -70.3808 -36.5288 -36.4063 -36.3356  13.2184  14.4521  15.3605  16.1150
    17.0315  18.1096  31.0609  31.7491

          k =-0.1250 0.7500-0.3750 (   471 PWs)   bands (ev):

   -70.3648 -36.5863 -36.4564 -36.3371  13.5938  14.3996  15.0548  16.4374
    17.5284  20.8322  26.2775  30.1419

          k =-0.2500 0.2500 0.2500 (   471 PWs)   bands (ev):

   -70.4009 -36.5108 -36.3130 -36.3130  12.4995  14.6885  14.6885  16.4236
    16.4236  17.7459  33.3848  33.3848

          k =-0.2500 0.7500-0.2500 (   475 PWs)   bands (ev):

   -70.3587 -36.5399 -36.5399 -36.3423  14.0731  14.0731  14.7279  17.1000
    17.1000  24.4831  24.4831  26.7709

          k = 0.6250-0.6250 0.2500 (   478 PWs)   bands (ev):

   -70.3831 -36.5699 -36.3826 -36.3182  13.6303  14.4198  14.9601  16.5186
    16.5412  19.6172  28.3390  31.8290

          k = 0.5000-0.5000 0.2500 (   484 PWs)   bands (ev):

   -70.3758 -36.5832 -36.4224 -36.3211  13.5935  14.3315  15.7047  16.5689
    16.5827  21.6005  24.9380  31.2746

          k = 0.5000-0.6250 0.3750 (   479 PWs)   bands (ev):

   -70.3747 -36.5398 -36.4425 -36.3539  14.1166  14.4487  14.8934  16.5887
    16.6124  22.5493  26.6609  27.7119

          k = 0.0000 0.0000 0.5000 (   458 PWs)   bands (ev):

   -70.3815 -36.4593 -36.3977 -36.3977  12.9958  14.5745  15.8901  15.8901
    16.6100  17.6462  34.3606  34.3606

          k = 0.0000-0.1250 0.6250 (   466 PWs)   bands (ev):

   -70.3606 -36.5453 -36.4456 -36.4067  13.5068  13.9696  15.9038  16.2826
    17.4447  19.7611  29.0995  32.0564

          k = 0.0000 0.7500-0.2500 (   462 PWs)   bands (ev):

   -70.3517 -36.5882 -36.4649 -36.4019  13.4254  13.9144  15.8338  16.3786
    17.9368  22.5679  25.2218  31.1563

          k =-0.1250 0.8750-0.2500 (   466 PWs)   bands (ev):

   -70.3466 -36.5590 -36.5087 -36.4210  13.5041  13.5173  15.9524  17.0272
    17.6326  22.9838  27.2955  28.0174

          k = 0.5000-0.5000 0.5000 (   484 PWs)   bands (ev):

   -70.3735 -36.4504 -36.4504 -36.4504  14.5381  14.5381  14.5381  16.5856
    16.5856  26.0585  26.0585  26.0585

          k = 0.0000 0.0000 0.7500 (   474 PWs)   bands (ev):

   -70.3420 -36.5256 -36.4961 -36.4961  13.2507  13.3161  16.9727  16.9727
    17.4516  22.2522  29.4714  29.4714

          k = 0.0000 0.8750-0.1250 (   478 PWs)   bands (ev):

   -70.3344 -36.5527 -36.5164 -36.4985  13.0511  13.0841  17.1320  17.3013
    17.8447  25.4504  26.2999  28.4369

          k = 0.0000 0.0000-1.0000 (   490 PWs)   bands (ev):

   -70.3273 -36.5380 -36.5380 -36.5380  12.8068  12.8068  17.8069  17.8069
    17.8069  27.2880  27.2880  27.2880

 ------ SPIN DOWN ----------


          k = 0.0000 0.0000 0.0000 (   459 PWs)   bands (ev):

   -67.9640 -33.8285 -33.8285 -33.8285   9.3800  17.0239  17.0239  17.0239
    19.3476  19.3476  41.8903  41.8903

          k = 0.0000-0.1250 0.1250 (   471 PWs)   bands (ev):

   -67.9536 -33.8907 -33.8491 -33.8288  10.0088  16.8318  16.9799  17.3792
    19.1520  19.3640  38.9110  41.0080

          k = 0.0000-0.2500 0.2500 (   465 PWs)   bands (ev):

   -67.9270 -34.0362 -33.8974 -33.8286  11.7005  16.3888  16.7882  18.3114
    18.9541  19.4298  33.5993  38.5308

          k = 0.0000-0.3750 0.3750 (   474 PWs)   bands (ev):

   -67.9009 -34.1810 -33.9463 -33.8293  13.4813  15.9717  17.1158  19.0312
    19.3836  19.5359  28.4958  36.4296

          k = 0.0000 0.5000-0.5000 (   476 PWs)   bands (ev):

   -67.8899 -34.2397 -33.9660 -33.8296  13.9722  15.8057  18.1607  19.0982
    19.5928  19.8852  25.8783  35.6482

          k =-0.1250-0.1250 0.2500 (   469 PWs)   bands (ev):

   -67.9349 -33.9907 -33.8721 -33.8434  11.1849  16.6063  16.6933  18.0983
    18.9017  19.4598  36.1330  37.2381

          k =-0.1250-0.2500 0.3750 (   476 PWs)   bands (ev):

   -67.9087 -34.1201 -33.9312 -33.8496  13.0752  16.1708  16.4758  18.8579
    19.2310  19.6618  31.1587  34.6902

          k =-0.1250 0.6250-0.5000 (   473 PWs)   bands (ev):

   -67.8898 -34.2072 -33.9780 -33.8506  14.2198  15.8787  17.0504  19.0264
    19.5842  20.7744  26.7461  33.4168

          k =-0.2500 0.7500-0.5000 (   478 PWs)   bands (ev):

   -67.8901 -34.1648 -34.0014 -33.8716  14.6027  15.8952  16.2548  18.9364
    19.4973  21.3151  29.1501  29.8047

          k =-0.2500 0.6250-0.3750 (   474 PWs)   bands (ev):

   -67.8821 -34.1631 -34.0537 -33.8768  15.0699  15.8579  16.3390  19.1110
    19.4328  23.4187  25.9813  28.8983

          k = 0.0000 0.0000 0.2500 (   482 PWs)   bands (ev):

   -67.9434 -33.9064 -33.8705 -33.8705  10.6138  17.0169  17.0169  17.3847
    18.6431  19.5908  38.2322  40.1504

          k = 0.0000-0.1250 0.3750 (   464 PWs)   bands (ev):

   -67.9175 -34.0317 -33.9196 -33.8772  12.2375  16.7291  16.8814  18.2282
    18.2386  19.7702  34.0485  37.6038

          k = 0.0000-0.2500 0.5000 (   472 PWs)   bands (ev):

   -67.8923 -34.1675 -33.9693 -33.8744  13.9442  16.3637  16.6858  18.5358
    19.3224  20.2038  28.8381  35.8633

          k = 0.0000 0.6250-0.3750 (   472 PWs)   bands (ev):

   -67.8817 -34.2230 -33.9898 -33.8727  14.4218  16.2153  16.9745  18.6537
    19.8426  21.1951  25.9253  35.0143

          k =-0.1250-0.1250 0.5000 (   472 PWs)   bands (ev):

   -67.8933 -34.1173 -33.9808 -33.9033  13.8731  16.3736  16.8171  18.1304
    19.0221  20.2954  31.7926  32.2712

          k =-0.1250 0.7500-0.3750 (   471 PWs)   bands (ev):

   -67.8760 -34.1805 -34.0361 -33.9048  14.9645  16.1115  16.5647  18.5117
    19.4806  22.1935  27.2010  30.7414

          k =-0.2500 0.2500 0.2500 (   471 PWs)   bands (ev):

   -67.9153 -34.0975 -33.8783 -33.8783  12.7295  16.1584  16.1584  19.2858
    19.2858  19.3534  33.8225  33.8225

          k =-0.2500 0.7500-0.2500 (   475 PWs)   bands (ev):

   -67.8694 -34.1287 -34.1287 -33.9105  15.8244  15.8244  16.0430  19.0772
    19.0772  25.4901  25.4901  27.4925

          k = 0.6250-0.6250 0.2500 (   478 PWs)   bands (ev):

   -67.8958 -34.1627 -33.9551 -33.8843  14.4156  15.7749  16.0749  19.2891
    19.5331  20.9971  29.0496  32.2500

          k = 0.5000-0.5000 0.2500 (   484 PWs)   bands (ev):

   -67.8877 -34.1775 -33.9989 -33.8873  14.7643  15.6408  16.6329  19.3317
    19.6160  22.5296  25.9733  31.6794

          k = 0.5000-0.6250 0.3750 (   479 PWs)   bands (ev):

   -67.8866 -34.1293 -34.0216 -33.9235  15.2782  15.7049  15.9333  19.4636
    19.5848  23.5379  27.3859  28.3653

          k = 0.0000 0.0000 0.5000 (   458 PWs)   bands (ev):

   -67.8944 -34.0414 -33.9715 -33.9715  13.5691  16.9695  17.4011  17.4011
    18.2790  20.1917  34.8282  34.8282

          k = 0.0000-0.1250 0.6250 (   466 PWs)   bands (ev):

   -67.8716 -34.1353 -34.0240 -33.9818  14.8039  16.0480  17.4185  18.0056
    19.1872  21.3927  29.8132  32.4998

          k = 0.0000 0.7500-0.2500 (   462 PWs)   bands (ev):

   -67.8619 -34.1822 -34.0454 -33.9767  15.1900  15.7539  17.3414  18.1684
    19.7406  23.6211  26.1774  31.5617

          k =-0.1250 0.8750-0.2500 (   466 PWs)   bands (ev):

   -67.8563 -34.1496 -34.0937 -33.9973  15.2938  15.4883  17.4490  18.7373
    19.4238  24.0165  28.0687  28.5735

          k = 0.5000-0.5000 0.5000 (   484 PWs)   bands (ev):

   -67.8854 -34.0304 -34.0304 -34.0304  15.6699  15.6699  15.6699  19.6392
    19.6392  26.7494  26.7494  26.7494

          k = 0.0000 0.0000 0.7500 (   474 PWs)   bands (ev):

   -67.8514 -34.1131 -34.0795 -34.0795  15.0003  15.3857  18.5907  18.5907
    19.2054  23.2557  29.8451  29.8451

          k = 0.0000 0.8750-0.1250 (   478 PWs)   bands (ev):

   -67.8429 -34.1421 -34.1019 -34.0823  15.0082  15.0198  18.7965  18.9792
    19.6397  26.0872  26.8463  28.7397

          k = 0.0000 0.0000-1.0000 (   490 PWs)   bands (ev):

   -67.8354 -34.1254 -34.1254 -34.1254  14.7622  14.7622  19.5982  19.5982
    19.5982  27.4863  27.4863  27.4863

     the Fermi energy is    17.5942 ev

!    total energy              =    -329.26156358 Ry
     Harris-Foulkes estimate   =    -329.26156358 Ry
     estimated scf accuracy    <          2.0E-09 Ry

     total all-electron energy =     -2545.558099 Ry

     The total energy is the sum of the following terms:

     one-electron contribution =    -112.51876384 Ry
     hartree contribution      =      66.41119772 Ry
     xc contribution           =     -34.79658484 Ry
     ewald contribution        =    -172.20771962 Ry
     one-center paw contrib.   =     -76.15036806 Ry
     smearing contrib. (-TS)   =       0.00067506 Ry

     total magnetization       =     2.03 Bohr mag/cell
     absolute magnetization    =     2.17 Bohr mag/cell

     convergence has been achieved in  16 iterations

     Forces acting on atoms (Ry/au):


     negative rho (up, down):  0.000E+00 1.398E-04
     atom    1 type  1   force =     0.00000000    0.00000000    0.00000000

     Total force =     0.000000     Total SCF correction =     0.000000


     entering subroutine stress ...


     negative rho (up, down):  0.000E+00 1.398E-04
          total   stress  (Ry/bohr**3)                   (kbar)     P= -157.50
  -0.00107068  -0.00000000   0.00000000       -157.50     -0.00      0.00
  -0.00000000  -0.00107068  -0.00000000         -0.00   -157.50     -0.00
   0.00000000  -0.00000000  -0.00107068          0.00     -0.00   -157.50


     Writing output data file Fe_bcc.save

     init_run     :      1.51s CPU      1.56s WALL (       1 calls)
     electrons    :     28.28s CPU     28.61s WALL (       1 calls)
     forces       :      0.12s CPU      0.12s WALL (       1 calls)
     stress       :      0.43s CPU      0.44s WALL (       1 calls)

     Called by init_run:
     wfcinit      :      0.48s CPU      0.49s WALL (       1 calls)
     potinit      :      0.51s CPU      0.53s WALL (       1 calls)

     Called by electrons:
     c_bands      :     16.97s CPU     17.05s WALL (      16 calls)
     sum_band     :      3.13s CPU      3.20s WALL (      16 calls)
     v_of_rho     :      0.38s CPU      0.39s WALL (      17 calls)
     newd         :      0.25s CPU      0.27s WALL (      17 calls)
     mix_rho      :      0.05s CPU      0.05s WALL (      16 calls)

     Called by c_bands:
     init_us_2    :      0.35s CPU      0.35s WALL (    2030 calls)
     cegterg      :     16.28s CPU     16.35s WALL (     928 calls)

     Called by *egterg:
     h_psi        :     13.81s CPU     14.02s WALL (    3045 calls)
     s_psi        :      0.38s CPU      0.30s WALL (    3045 calls)
     g_psi        :      0.08s CPU      0.08s WALL (    2059 calls)
     cdiaghg      :      0.89s CPU      0.90s WALL (    2987 calls)

     Called by h_psi:
     add_vuspsi   :      0.39s CPU      0.34s WALL (    3045 calls)

     General routines
     calbec       :      0.40s CPU      0.41s WALL (    4089 calls)
     fft          :      0.20s CPU      0.20s WALL (     561 calls)
     ffts         :      0.02s CPU      0.02s WALL (      66 calls)
     fftw         :     14.02s CPU     14.26s WALL (   68310 calls)
     interpolate  :      0.05s CPU      0.05s WALL (      66 calls)
     davcio       :      0.00s CPU      0.00s WALL (      58 calls)


     PAW routines
     PAW_pot      :      7.98s CPU      8.14s WALL (      17 calls)
     PAW_symme    :      0.02s CPU      0.02s WALL (      33 calls)

     PWSCF        :    30.78s CPU        31.25s WALL


   This run was terminated on:  10:18:31  11May2015            

=------------------------------------------------------------------------------=
   JOB DONE.
=------------------------------------------------------------------------------=
