
     Program PWSCF v.5.1.2 starts on 11May2015 at 10:27: 6 

     This program is part of the open-source Quantum ESPRESSO suite
     for quantum simulation of materials; please cite
         "P. Giannozzi et al., J. Phys.:Condens. Matter 21 395502 (2009);
          URL http://www.quantum-espresso.org", 
     in publications or presentations arising from this work. More details at
     http://www.quantum-espresso.org/quote

     Serial version
     Reading input from Fe_bcc_5.39_10.pw.in

     Current dimensions of program PWSCF are:
     Max number of different atomic species (ntypx) = 10
     Max number of k-points (npk) =  40000
     Max angular momentum in pseudopotentials (lmaxx) =  3
               file Fe.pbe-spn-kjpaw_psl.0.2.1.UPF: wavefunction(s)  3D renormalized

     G-vector sticks info
     --------------------
     sticks:   dense  smooth     PW     G-vecs:    dense   smooth      PW
     Sum         411     333    103                 5233     3781     683

     Generating pointlists ...
     new r_m :   0.3572 (alat units)  1.9255 (a.u.) for type    1


     bravais-lattice index     =            3
     lattice parameter (alat)  =       5.3900  a.u.
     unit-cell volume          =      78.2954 (a.u.)^3
     number of atoms/cell      =            1
     number of atomic types    =            1
     number of electrons       =        16.00
     number of Kohn-Sham states=           12
     kinetic-energy cutoff     =      50.0000  Ry
     charge density cutoff     =     250.0000  Ry
     convergence threshold     =      1.0E-08
     mixing beta               =       0.7000
     number of iterations used =            8  plain     mixing
     Exchange-correlation      =  SLA  PW   PBX  PBC ( 1  4  3  4 0 0)

     celldm(1)=   5.390000  celldm(2)=   0.000000  celldm(3)=   0.000000
     celldm(4)=   0.000000  celldm(5)=   0.000000  celldm(6)=   0.000000

     crystal axes: (cart. coord. in units of alat)
               a(1) = (   0.500000   0.500000   0.500000 )  
               a(2) = (  -0.500000   0.500000   0.500000 )  
               a(3) = (  -0.500000  -0.500000   0.500000 )  

     reciprocal axes: (cart. coord. in units 2 pi/alat)
               b(1) = (  1.000000  0.000000  1.000000 )  
               b(2) = ( -1.000000  1.000000  0.000000 )  
               b(3) = (  0.000000 -1.000000  1.000000 )  


     PseudoPot. # 1 for Fe read from file:
     ./Fe.pbe-spn-kjpaw_psl.0.2.1.UPF
     MD5 check sum: a0a08122d52b112de96d1da1d7dd020f
     Pseudo is Projector augmented-wave + core cor, Zval = 16.0
     Generated using "atomic" code by A. Dal Corso  v.5.0.2 svn rev. 9415
     Shape of augmentation charge: PSQ
     Using radial grid of 1191 points,  6 beta functions with: 
                l(1) =   0
                l(2) =   0
                l(3) =   1
                l(4) =   1
                l(5) =   2
                l(6) =   2
     Q(r) pseudized with 0 coefficients 


     atomic species   valence    mass     pseudopotential
        Fe            16.00    55.85000     Fe( 1.00)

     Starting magnetic structure 
     atomic species   magnetization
        Fe           0.700

     48 Sym. Ops., with inversion, found



   Cartesian axes

     site n.     atom                  positions (alat units)
         1           Fe  tau(   1) = (   0.0000000   0.0000000   0.0000000  )

     number of k points=    94  Marzari-Vanderbilt smearing, width (Ry)=  0.0250
                       cart. coord. in units 2pi/alat
        k(    1) = (   0.0000000   0.0000000   0.0000000), wk =   0.0010000
        k(    2) = (   0.0000000  -0.1000000   0.1000000), wk =   0.0120000
        k(    3) = (   0.0000000  -0.2000000   0.2000000), wk =   0.0120000
        k(    4) = (   0.0000000  -0.3000000   0.3000000), wk =   0.0120000
        k(    5) = (   0.0000000  -0.4000000   0.4000000), wk =   0.0120000
        k(    6) = (   0.0000000   0.5000000  -0.5000000), wk =   0.0060000
        k(    7) = (  -0.1000000  -0.1000000   0.2000000), wk =   0.0240000
        k(    8) = (  -0.1000000  -0.2000000   0.3000000), wk =   0.0480000
        k(    9) = (  -0.1000000  -0.3000000   0.4000000), wk =   0.0480000
        k(   10) = (  -0.1000000   0.6000000  -0.5000000), wk =   0.0480000
        k(   11) = (  -0.2000000  -0.2000000   0.4000000), wk =   0.0240000
        k(   12) = (  -0.2000000   0.7000000  -0.5000000), wk =   0.0480000
        k(   13) = (  -0.2000000   0.6000000  -0.4000000), wk =   0.0240000
        k(   14) = (  -0.3000000   0.7000000  -0.4000000), wk =   0.0240000
        k(   15) = (   0.0000000   0.0000000   0.2000000), wk =   0.0060000
        k(   16) = (   0.0000000  -0.1000000   0.3000000), wk =   0.0240000
        k(   17) = (   0.0000000  -0.2000000   0.4000000), wk =   0.0240000
        k(   18) = (   0.0000000  -0.3000000   0.5000000), wk =   0.0240000
        k(   19) = (   0.0000000   0.6000000  -0.4000000), wk =   0.0120000
        k(   20) = (  -0.1000000  -0.1000000   0.4000000), wk =   0.0240000
        k(   21) = (  -0.1000000  -0.2000000   0.5000000), wk =   0.0480000
        k(   22) = (  -0.1000000   0.7000000  -0.4000000), wk =   0.0480000
        k(   23) = (  -0.2000000   0.2000000   0.2000000), wk =   0.0080000
        k(   24) = (  -0.2000000   0.8000000  -0.4000000), wk =   0.0240000
        k(   25) = (  -0.2000000   0.7000000  -0.3000000), wk =   0.0240000
        k(   26) = (  -0.3000000   0.3000000   0.2000000), wk =   0.0240000
        k(   27) = (   0.6000000  -0.6000000   0.2000000), wk =   0.0240000
        k(   28) = (   0.6000000  -0.7000000   0.3000000), wk =   0.0240000
        k(   29) = (   0.5000000  -0.5000000   0.2000000), wk =   0.0120000
        k(   30) = (   0.5000000  -0.6000000   0.3000000), wk =   0.0480000
        k(   31) = (   0.4000000  -0.6000000   0.4000000), wk =   0.0080000
        k(   32) = (   0.0000000   0.0000000   0.4000000), wk =   0.0060000
        k(   33) = (   0.0000000  -0.1000000   0.5000000), wk =   0.0240000
        k(   34) = (   0.0000000  -0.2000000   0.6000000), wk =   0.0240000
        k(   35) = (   0.0000000   0.7000000  -0.3000000), wk =   0.0120000
        k(   36) = (  -0.1000000  -0.1000000   0.6000000), wk =   0.0240000
        k(   37) = (  -0.1000000   0.8000000  -0.3000000), wk =   0.0480000
        k(   38) = (  -0.2000000   0.8000000  -0.2000000), wk =   0.0080000
        k(   39) = (   0.6000000  -0.6000000   0.4000000), wk =   0.0080000
        k(   40) = (   0.5000000  -0.5000000   0.4000000), wk =   0.0120000
        k(   41) = (   0.0000000   0.0000000   0.6000000), wk =   0.0060000
        k(   42) = (   0.0000000  -0.1000000   0.7000000), wk =   0.0240000
        k(   43) = (   0.0000000   0.8000000  -0.2000000), wk =   0.0120000
        k(   44) = (  -0.1000000   0.9000000  -0.2000000), wk =   0.0240000
        k(   45) = (   0.0000000   0.0000000   0.8000000), wk =   0.0060000
        k(   46) = (   0.0000000   0.9000000  -0.1000000), wk =   0.0120000
        k(   47) = (   0.0000000   0.0000000  -1.0000000), wk =   0.0010000
        k(   48) = (   0.0000000   0.0000000   0.0000000), wk =   0.0010000
        k(   49) = (   0.0000000  -0.1000000   0.1000000), wk =   0.0120000
        k(   50) = (   0.0000000  -0.2000000   0.2000000), wk =   0.0120000
        k(   51) = (   0.0000000  -0.3000000   0.3000000), wk =   0.0120000
        k(   52) = (   0.0000000  -0.4000000   0.4000000), wk =   0.0120000
        k(   53) = (   0.0000000   0.5000000  -0.5000000), wk =   0.0060000
        k(   54) = (  -0.1000000  -0.1000000   0.2000000), wk =   0.0240000
        k(   55) = (  -0.1000000  -0.2000000   0.3000000), wk =   0.0480000
        k(   56) = (  -0.1000000  -0.3000000   0.4000000), wk =   0.0480000
        k(   57) = (  -0.1000000   0.6000000  -0.5000000), wk =   0.0480000
        k(   58) = (  -0.2000000  -0.2000000   0.4000000), wk =   0.0240000
        k(   59) = (  -0.2000000   0.7000000  -0.5000000), wk =   0.0480000
        k(   60) = (  -0.2000000   0.6000000  -0.4000000), wk =   0.0240000
        k(   61) = (  -0.3000000   0.7000000  -0.4000000), wk =   0.0240000
        k(   62) = (   0.0000000   0.0000000   0.2000000), wk =   0.0060000
        k(   63) = (   0.0000000  -0.1000000   0.3000000), wk =   0.0240000
        k(   64) = (   0.0000000  -0.2000000   0.4000000), wk =   0.0240000
        k(   65) = (   0.0000000  -0.3000000   0.5000000), wk =   0.0240000
        k(   66) = (   0.0000000   0.6000000  -0.4000000), wk =   0.0120000
        k(   67) = (  -0.1000000  -0.1000000   0.4000000), wk =   0.0240000
        k(   68) = (  -0.1000000  -0.2000000   0.5000000), wk =   0.0480000
        k(   69) = (  -0.1000000   0.7000000  -0.4000000), wk =   0.0480000
        k(   70) = (  -0.2000000   0.2000000   0.2000000), wk =   0.0080000
        k(   71) = (  -0.2000000   0.8000000  -0.4000000), wk =   0.0240000
        k(   72) = (  -0.2000000   0.7000000  -0.3000000), wk =   0.0240000
        k(   73) = (  -0.3000000   0.3000000   0.2000000), wk =   0.0240000
        k(   74) = (   0.6000000  -0.6000000   0.2000000), wk =   0.0240000
        k(   75) = (   0.6000000  -0.7000000   0.3000000), wk =   0.0240000
        k(   76) = (   0.5000000  -0.5000000   0.2000000), wk =   0.0120000
        k(   77) = (   0.5000000  -0.6000000   0.3000000), wk =   0.0480000
        k(   78) = (   0.4000000  -0.6000000   0.4000000), wk =   0.0080000
        k(   79) = (   0.0000000   0.0000000   0.4000000), wk =   0.0060000
        k(   80) = (   0.0000000  -0.1000000   0.5000000), wk =   0.0240000
        k(   81) = (   0.0000000  -0.2000000   0.6000000), wk =   0.0240000
        k(   82) = (   0.0000000   0.7000000  -0.3000000), wk =   0.0120000
        k(   83) = (  -0.1000000  -0.1000000   0.6000000), wk =   0.0240000
        k(   84) = (  -0.1000000   0.8000000  -0.3000000), wk =   0.0480000
        k(   85) = (  -0.2000000   0.8000000  -0.2000000), wk =   0.0080000
        k(   86) = (   0.6000000  -0.6000000   0.4000000), wk =   0.0080000
        k(   87) = (   0.5000000  -0.5000000   0.4000000), wk =   0.0120000
        k(   88) = (   0.0000000   0.0000000   0.6000000), wk =   0.0060000
        k(   89) = (   0.0000000  -0.1000000   0.7000000), wk =   0.0240000
        k(   90) = (   0.0000000   0.8000000  -0.2000000), wk =   0.0120000
        k(   91) = (  -0.1000000   0.9000000  -0.2000000), wk =   0.0240000
        k(   92) = (   0.0000000   0.0000000   0.8000000), wk =   0.0060000
        k(   93) = (   0.0000000   0.9000000  -0.1000000), wk =   0.0120000
        k(   94) = (   0.0000000   0.0000000  -1.0000000), wk =   0.0010000

     Dense  grid:     5233 G-vectors     FFT dimensions: (  24,  24,  24)

     Smooth grid:     3781 G-vectors     FFT dimensions: (  24,  24,  24)

     Largest allocated arrays     est. size (Mb)     dimensions
        Kohn-Sham Wavefunctions         0.09 Mb     (     478,   12)
        NL pseudopotentials             0.13 Mb     (     478,   18)
        Each V/rho on FFT grid          0.42 Mb     (   13824,   2)
        Each G-vector array             0.04 Mb     (    5233)
        G-vector shells                 0.00 Mb     (      86)
     Largest temporary arrays     est. size (Mb)     dimensions
        Auxiliary wavefunctions         0.35 Mb     (     478,   48)
        Each subspace H/S matrix        0.04 Mb     (      48,   48)
        Each <psi_i|beta_j> matrix      0.00 Mb     (      18,   12)
        Arrays for rho mixing           1.69 Mb     (   13824,    8)

     Check: negative/imaginary core charge=   -0.000419    0.000000

     Initial potential from superposition of free atoms

     starting charge   15.99956, renormalised to   16.00000
     Starting wfc are   13 randomized atomic wfcs

     total cpu time spent up to now is        2.3 secs

     Self-consistent Calculation

     iteration #  1     ecut=    50.00 Ry     beta=0.70
     Davidson diagonalization with overlap
     ethr =  1.00E-02,  avg # of iterations =  3.2

     negative rho (up, down):  0.000E+00 3.354E-04

     Magnetic moment per site:
     atom:    1    charge:   14.2826    magn:    5.6873    constr:    0.0000

     total cpu time spent up to now is        5.1 secs

     total energy              =    -328.98675935 Ry
     Harris-Foulkes estimate   =    -328.05750924 Ry
     estimated scf accuracy    <       1.51376293 Ry

     total magnetization       =     3.84 Bohr mag/cell
     absolute magnetization    =     3.87 Bohr mag/cell

     iteration #  2     ecut=    50.00 Ry     beta=0.70
     Davidson diagonalization with overlap
     ethr =  9.46E-03,  avg # of iterations =  1.2

     negative rho (up, down):  0.000E+00 3.573E-04

     Magnetic moment per site:
     atom:    1    charge:   14.5080    magn:    3.4660    constr:    0.0000

     total cpu time spent up to now is        7.4 secs

     total energy              =    -329.16279523 Ry
     Harris-Foulkes estimate   =    -329.09887593 Ry
     estimated scf accuracy    <       0.34221070 Ry

     total magnetization       =     3.05 Bohr mag/cell
     absolute magnetization    =     3.18 Bohr mag/cell

     iteration #  3     ecut=    50.00 Ry     beta=0.70
     Davidson diagonalization with overlap
     ethr =  2.14E-03,  avg # of iterations =  2.1

     negative rho (up, down):  0.000E+00 3.617E-04

     Magnetic moment per site:
     atom:    1    charge:   14.3922    magn:    2.4876    constr:    0.0000

     total cpu time spent up to now is        9.8 secs

     total energy              =    -329.18252863 Ry
     Harris-Foulkes estimate   =    -329.34171818 Ry
     estimated scf accuracy    <       0.45825902 Ry

     total magnetization       =     2.51 Bohr mag/cell
     absolute magnetization    =     2.65 Bohr mag/cell

     iteration #  4     ecut=    50.00 Ry     beta=0.70
     Davidson diagonalization with overlap
     ethr =  2.14E-03,  avg # of iterations =  2.0

     negative rho (up, down):  0.000E+00 1.925E-04

     Magnetic moment per site:
     atom:    1    charge:   14.4246    magn:    2.2018    constr:    0.0000

     total cpu time spent up to now is       12.3 secs

     total energy              =    -329.25840910 Ry
     Harris-Foulkes estimate   =    -329.25753520 Ry
     estimated scf accuracy    <       0.00256371 Ry

     total magnetization       =     2.28 Bohr mag/cell
     absolute magnetization    =     2.45 Bohr mag/cell

     iteration #  5     ecut=    50.00 Ry     beta=0.70
     Davidson diagonalization with overlap
     ethr =  1.60E-05,  avg # of iterations =  3.4

     negative rho (up, down):  0.000E+00 1.840E-04

     Magnetic moment per site:
     atom:    1    charge:   14.4077    magn:    2.2049    constr:    0.0000

     total cpu time spent up to now is       15.4 secs

     total energy              =    -329.26261539 Ry
     Harris-Foulkes estimate   =    -329.26225964 Ry
     estimated scf accuracy    <       0.00046089 Ry

     total magnetization       =     2.12 Bohr mag/cell
     absolute magnetization    =     2.27 Bohr mag/cell

     iteration #  6     ecut=    50.00 Ry     beta=0.70
     Davidson diagonalization with overlap
     ethr =  2.88E-06,  avg # of iterations =  2.2

     negative rho (up, down):  0.000E+00 1.239E-04

     Magnetic moment per site:
     atom:    1    charge:   14.4073    magn:    2.1049    constr:    0.0000

     total cpu time spent up to now is       18.1 secs

     total energy              =    -329.26261507 Ry
     Harris-Foulkes estimate   =    -329.26277643 Ry
     estimated scf accuracy    <       0.00039439 Ry

     total magnetization       =     2.11 Bohr mag/cell
     absolute magnetization    =     2.25 Bohr mag/cell

     iteration #  7     ecut=    50.00 Ry     beta=0.70
     Davidson diagonalization with overlap
     ethr =  2.46E-06,  avg # of iterations =  1.5

     negative rho (up, down):  0.000E+00 1.575E-04

     Magnetic moment per site:
     atom:    1    charge:   14.4112    magn:    2.1738    constr:    0.0000

     total cpu time spent up to now is       20.4 secs

     total energy              =    -329.26292965 Ry
     Harris-Foulkes estimate   =    -329.26284230 Ry
     estimated scf accuracy    <       0.00007759 Ry

     total magnetization       =     2.08 Bohr mag/cell
     absolute magnetization    =     2.21 Bohr mag/cell

     iteration #  8     ecut=    50.00 Ry     beta=0.70
     Davidson diagonalization with overlap
     ethr =  4.85E-07,  avg # of iterations =  2.0

     negative rho (up, down):  0.000E+00 1.573E-04

     Magnetic moment per site:
     atom:    1    charge:   14.4125    magn:    2.1706    constr:    0.0000

     total cpu time spent up to now is       22.8 secs

     total energy              =    -329.26298122 Ry
     Harris-Foulkes estimate   =    -329.26296899 Ry
     estimated scf accuracy    <       0.00002331 Ry

     total magnetization       =     2.10 Bohr mag/cell
     absolute magnetization    =     2.23 Bohr mag/cell

     iteration #  9     ecut=    50.00 Ry     beta=0.70
     Davidson diagonalization with overlap
     ethr =  1.46E-07,  avg # of iterations =  2.0

     negative rho (up, down):  0.000E+00 1.503E-04

     Magnetic moment per site:
     atom:    1    charge:   14.4113    magn:    2.1519    constr:    0.0000

     total cpu time spent up to now is       25.3 secs

     total energy              =    -329.26299115 Ry
     Harris-Foulkes estimate   =    -329.26298419 Ry
     estimated scf accuracy    <       0.00001759 Ry

     total magnetization       =     2.10 Bohr mag/cell
     absolute magnetization    =     2.23 Bohr mag/cell

     iteration # 10     ecut=    50.00 Ry     beta=0.70
     Davidson diagonalization with overlap
     ethr =  1.10E-07,  avg # of iterations =  1.2

     negative rho (up, down):  0.000E+00 1.485E-04

     Magnetic moment per site:
     atom:    1    charge:   14.4109    magn:    2.1478    constr:    0.0000

     total cpu time spent up to now is       27.5 secs

     total energy              =    -329.26299517 Ry
     Harris-Foulkes estimate   =    -329.26299463 Ry
     estimated scf accuracy    <       0.00000086 Ry

     total magnetization       =     2.09 Bohr mag/cell
     absolute magnetization    =     2.22 Bohr mag/cell

     iteration # 11     ecut=    50.00 Ry     beta=0.70
     Davidson diagonalization with overlap
     ethr =  5.35E-09,  avg # of iterations =  2.4

     negative rho (up, down):  0.000E+00 1.485E-04

     Magnetic moment per site:
     atom:    1    charge:   14.4110    magn:    2.1479    constr:    0.0000

     total cpu time spent up to now is       30.1 secs

     total energy              =    -329.26299575 Ry
     Harris-Foulkes estimate   =    -329.26299557 Ry
     estimated scf accuracy    <       0.00000004 Ry

     total magnetization       =     2.09 Bohr mag/cell
     absolute magnetization    =     2.22 Bohr mag/cell

     iteration # 12     ecut=    50.00 Ry     beta=0.70
     Davidson diagonalization with overlap
     ethr =  2.43E-10,  avg # of iterations =  2.4

     negative rho (up, down):  0.000E+00 1.483E-04

     Magnetic moment per site:
     atom:    1    charge:   14.4110    magn:    2.1473    constr:    0.0000

     total cpu time spent up to now is       32.7 secs

     total energy              =    -329.26299580 Ry
     Harris-Foulkes estimate   =    -329.26299576 Ry
     estimated scf accuracy    <       0.00000006 Ry

     total magnetization       =     2.09 Bohr mag/cell
     absolute magnetization    =     2.22 Bohr mag/cell

     iteration # 13     ecut=    50.00 Ry     beta=0.70
     Davidson diagonalization with overlap
     ethr =  2.43E-10,  avg # of iterations =  1.2

     negative rho (up, down):  0.000E+00 1.480E-04

     Magnetic moment per site:
     atom:    1    charge:   14.4109    magn:    2.1468    constr:    0.0000

     total cpu time spent up to now is       34.9 secs

     total energy              =    -329.26299583 Ry
     Harris-Foulkes estimate   =    -329.26299581 Ry
     estimated scf accuracy    <       0.00000002 Ry

     total magnetization       =     2.09 Bohr mag/cell
     absolute magnetization    =     2.22 Bohr mag/cell

     iteration # 14     ecut=    50.00 Ry     beta=0.70
     Davidson diagonalization with overlap
     ethr =  1.18E-10,  avg # of iterations =  1.3

     negative rho (up, down):  0.000E+00 1.480E-04

     Magnetic moment per site:
     atom:    1    charge:   14.4109    magn:    2.1467    constr:    0.0000

     total cpu time spent up to now is       37.3 secs

     End of self-consistent calculation

 ------ SPIN UP ------------


          k = 0.0000 0.0000 0.0000 (   459 PWs)   bands (ev):

   -70.2403 -36.0533 -36.0533 -36.0533   9.4270  15.6475  15.6475  15.6475
    16.6145  16.6145  42.5246  42.5246

          k = 0.0000-0.1000 0.1000 (   463 PWs)   bands (ev):

   -70.2336 -36.0911 -36.0656 -36.0530   9.8341  15.5386  15.6296  15.8642
    16.5224  16.6238  40.1224  41.8408

          k = 0.0000-0.2000 0.2000 (   461 PWs)   bands (ev):

   -70.2154 -36.1880 -36.0983 -36.0528  10.9620  15.2609  15.4910  16.4606
    16.4694  16.6557  35.7255  39.8682

          k = 0.0000-0.3000 0.3000 (   468 PWs)   bands (ev):

   -70.1934 -36.3078 -36.1386 -36.0532  12.3365  14.9314  15.5769  16.6287
    16.7113  17.2680  31.1009  37.8379

          k = 0.0000-0.4000 0.4000 (   474 PWs)   bands (ev):

   -70.1756 -36.4032 -36.1714 -36.0538  12.9353  14.6751  16.5613  16.7702
    17.1713  17.9951  27.0402  36.4499

          k = 0.0000 0.5000-0.5000 (   476 PWs)   bands (ev):

   -70.1688 -36.4389 -36.1836 -36.0541  12.9772  14.5794  16.7540  16.7962
    18.2950  18.3331  24.9885  35.9598

          k =-0.1000-0.1000 0.2000 (   465 PWs)   bands (ev):

   -70.2212 -36.1585 -36.0791 -36.0622  10.6062  15.4022  15.4512  16.3161
    16.4078  16.6804  37.7027  38.8968

          k =-0.1000-0.2000 0.3000 (   468 PWs)   bands (ev):

   -70.2012 -36.2600 -36.1186 -36.0664  11.9335  15.0886  15.2585  16.4381
    16.7692  17.1215  33.5490  36.5751

          k =-0.1000-0.3000 0.4000 (   469 PWs)   bands (ev):

   -70.1810 -36.3588 -36.1623 -36.0674  12.9989  14.7982  15.5969  16.6566
    16.9047  18.1602  29.1249  35.0538

          k =-0.1000 0.6000-0.5000 (   467 PWs)   bands (ev):

   -70.1685 -36.4185 -36.1899 -36.0672  13.1775  14.6365  16.2672  16.7359
    17.4099  19.4485  25.6714  34.2178

          k =-0.2000-0.2000 0.4000 (   465 PWs)   bands (ev):

   -70.1830 -36.3314 -36.1583 -36.0830  13.1468  14.7653  15.1443  16.5010
    16.9156  18.3024  31.5124  32.3338

          k =-0.2000 0.7000-0.5000 (   473 PWs)   bands (ev):

   -70.1687 -36.3775 -36.2103 -36.0901  13.6967  14.6345  15.3549  16.6862
    17.1045  20.0545  27.6499  30.7956

          k =-0.2000 0.6000-0.4000 (   474 PWs)   bands (ev):

   -70.1631 -36.3918 -36.2340 -36.0917  13.6907  14.6488  15.5239  16.7596
    17.2794  21.6434  25.1940  30.3518

          k =-0.3000 0.7000-0.4000 (   471 PWs)   bands (ev):

   -70.1609 -36.3534 -36.2783 -36.1009  14.1826  14.5690  15.0263  16.8778
    17.1141  22.7115  26.1187  27.5995

          k = 0.0000 0.0000 0.2000 (   458 PWs)   bands (ev):

   -70.2266 -36.1012 -36.0778 -36.0778  10.2289  15.6550  15.6550  15.8661
    16.2668  16.7506  39.2820  41.2360

          k = 0.0000-0.1000 0.3000 (   468 PWs)   bands (ev):

   -70.2095 -36.1882 -36.1120 -36.0840  11.3148  15.4596  15.5079  16.1225
    16.4070  16.8829  35.9366  38.9485

          k = 0.0000-0.2000 0.4000 (   468 PWs)   bands (ev):

   -70.1878 -36.3023 -36.1526 -36.0828  12.6220  15.1583  15.2520  16.4392
    17.1486  17.2215  31.3875  37.1802

          k = 0.0000-0.3000 0.5000 (   472 PWs)   bands (ev):

   -70.1703 -36.3943 -36.1855 -36.0812  13.1738  14.9199  15.5501  16.6141
    17.9622  18.3290  27.2463  36.2142

          k = 0.0000 0.6000-0.4000 (   460 PWs)   bands (ev):

   -70.1630 -36.4281 -36.1972 -36.0798  13.1949  14.8306  15.7982  16.5922
    18.2693  19.6479  25.0490  35.6918

          k =-0.1000-0.1000 0.4000 (   464 PWs)   bands (ev):

   -70.1902 -36.2641 -36.1495 -36.1040  12.4853  15.0768  15.4975  16.1323
    16.9347  17.2776  33.7583  34.7356

          k =-0.1000-0.2000 0.5000 (   465 PWs)   bands (ev):

   -70.1710 -36.3483 -36.1951 -36.1070  13.4194  14.7475  15.3696  16.4454
    17.3556  18.5814  29.6403  32.8113

          k =-0.1000 0.7000-0.4000 (   463 PWs)   bands (ev):

   -70.1591 -36.4007 -36.2244 -36.1063  13.5489  14.9255  15.1945  16.5739
    17.8543  20.5914  25.9499  31.9360

          k =-0.2000 0.2000 0.2000 (   465 PWs)   bands (ev):

   -70.2062 -36.2449 -36.0820 -36.0820  11.6675  15.1021  15.1021  16.5982
    16.5982  17.1396  35.7173  35.7173

          k =-0.2000 0.8000-0.4000 (   461 PWs)   bands (ev):

   -70.1574 -36.3691 -36.2563 -36.1157  14.0502  14.3350  15.2219  16.7376
    17.4696  20.9072  28.0224  28.9264

          k =-0.2000 0.7000-0.3000 (   466 PWs)   bands (ev):

   -70.1525 -36.3675 -36.2917 -36.1175  14.0707  14.6031  14.8608  16.9466
    17.5210  23.1721  25.3766  28.1883

          k =-0.3000 0.3000 0.2000 (   469 PWs)   bands (ev):

   -70.1877 -36.3273 -36.1312 -36.0853  13.0112  14.7932  14.9514  16.6491
    16.7226  18.2705  31.5603  34.1148

          k = 0.6000-0.6000 0.2000 (   474 PWs)   bands (ev):

   -70.1729 -36.3824 -36.1825 -36.0876  13.5281  14.5896  15.6946  16.7584
    16.7877  19.7755  27.4421  33.0750

          k = 0.6000-0.7000 0.3000 (   478 PWs)   bands (ev):

   -70.1746 -36.3610 -36.1705 -36.1129  13.9939  14.5937  14.8771  16.7302
    16.8148  19.9105  29.8021  30.5283

          k = 0.5000-0.5000 0.2000 (   472 PWs)   bands (ev):

   -70.1670 -36.4004 -36.2041 -36.0888  13.5098  14.5189  16.2891  16.8010
    16.8080  21.0801  25.1406  32.7080

          k = 0.5000-0.6000 0.3000 (   472 PWs)   bands (ev):

   -70.1660 -36.3581 -36.2252 -36.1210  14.0658  14.5454  15.3673  16.8150
    16.8702  22.1052  26.3286  29.4600

          k = 0.4000-0.6000 0.4000 (   475 PWs)   bands (ev):

   -70.1636 -36.2955 -36.2955 -36.1342  14.2562  14.8827  14.8827  16.8750
    16.8750  24.8926  24.8926  27.1158

          k = 0.0000 0.0000 0.4000 (   470 PWs)   bands (ev):

   -70.1932 -36.2048 -36.1463 -36.1463  12.2404  15.3477  15.8373  15.8373
    16.4473  17.2219  36.0979  36.9686

          k = 0.0000-0.1000 0.5000 (   461 PWs)   bands (ev):

   -70.1725 -36.2894 -36.1877 -36.1568  13.2452  14.7524  15.7735  16.2036
    17.1205  17.9691  32.2040  34.8941

          k = 0.0000-0.2000 0.6000 (   458 PWs)   bands (ev):

   -70.1560 -36.3706 -36.2213 -36.1518  13.6194  14.5300  15.6079  16.4166
    17.8778  19.8478  27.9104  33.3998

          k = 0.0000 0.7000-0.3000 (   464 PWs)   bands (ev):

   -70.1499 -36.4023 -36.2349 -36.1498  13.5721  14.5969  15.5399  16.4344
    18.2023  21.7115  25.2897  32.8113

          k =-0.1000-0.1000 0.6000 (   467 PWs)   bands (ev):

   -70.1552 -36.3374 -36.2391 -36.1743  13.7489  14.2343  15.8521  16.5429
    17.5234  19.6836  30.4051  30.9333

          k =-0.1000 0.8000-0.3000 (   466 PWs)   bands (ev):

   -70.1443 -36.3724 -36.2759 -36.1738  13.7686  14.1145  15.6899  16.8495
    17.8999  22.3147  26.6523  29.7739

          k =-0.2000 0.8000-0.2000 (   469 PWs)   bands (ev):

   -70.1399 -36.3381 -36.3381 -36.1760  13.8932  13.8932  15.5828  17.5259
    17.5259  25.2587  25.2587  27.2182

          k = 0.6000-0.6000 0.4000 (   471 PWs)   bands (ev):

   -70.1671 -36.3408 -36.1794 -36.1794  14.5464  14.5464  14.8333  16.8149
    16.8149  22.1302  28.7495  28.7495

          k = 0.5000-0.5000 0.4000 (   470 PWs)   bands (ev):

   -70.1643 -36.3016 -36.2366 -36.1832  14.5175  14.5450  15.0516  16.8271
    16.8359  24.4738  25.9254  28.3865

          k = 0.0000 0.0000 0.6000 (   462 PWs)   bands (ev):

   -70.1541 -36.2897 -36.2318 -36.2318  13.6071  14.2156  16.4516  16.4516
    17.1837  19.2828  32.5713  32.5713

          k = 0.0000-0.1000 0.7000 (   464 PWs)   bands (ev):

   -70.1392 -36.3425 -36.2673 -36.2400  13.6155  13.7816  16.5779  16.8054
    17.7817  21.5683  28.9324  30.9054

          k = 0.0000 0.8000-0.2000 (   470 PWs)   bands (ev):

   -70.1337 -36.3697 -36.2814 -36.2364  13.5009  13.7035  16.5579  16.9154
    18.1201  24.0032  25.8821  30.2561

          k =-0.1000 0.9000-0.2000 (   468 PWs)   bands (ev):

   -70.1295 -36.3489 -36.3138 -36.2493  13.4620  13.4756  16.6727  17.4666
    17.9220  24.2776  27.5768  28.1611

          k = 0.0000 0.0000 0.8000 (   466 PWs)   bands (ev):

   -70.1256 -36.3258 -36.3040 -36.3040  13.3000  13.3184  17.4369  17.4369
    17.7932  23.7888  29.0825  29.0825

          k = 0.0000 0.9000-0.1000 (   474 PWs)   bands (ev):

   -70.1207 -36.3431 -36.3177 -36.3065  13.1471  13.1627  17.5695  17.6900
    18.0542  26.2946  26.8859  28.3830

          k = 0.0000 0.0000-1.0000 (   466 PWs)   bands (ev):

   -70.1153 -36.3318 -36.3318 -36.3318  12.9820  12.9820  18.0291  18.0291
    18.0291  27.6368  27.6368  27.6368

 ------ SPIN DOWN ----------


          k = 0.0000 0.0000 0.0000 (   459 PWs)   bands (ev):

   -67.6961 -33.5530 -33.5530 -33.5530   9.5702  17.2903  17.2903  17.2903
    19.6006  19.6006  42.2539  42.2539

          k = 0.0000-0.1000 0.1000 (   463 PWs)   bands (ev):

   -67.6888 -33.5948 -33.5664 -33.5529   9.9800  17.1619  17.2645  17.5242
    19.4630  19.6108  40.2061  41.7253

          k = 0.0000-0.2000 0.2000 (   461 PWs)   bands (ev):

   -67.6692 -33.7025 -33.6023 -33.5526  11.1348  16.8365  17.1324  18.1710
    19.2476  19.6505  36.1793  39.9429

          k = 0.0000-0.3000 0.3000 (   468 PWs)   bands (ev):

   -67.6452 -33.8350 -33.6464 -33.5531  12.7154  16.4539  17.0175  19.0560
    19.2224  19.7268  31.8131  37.9262

          k = 0.0000-0.4000 0.4000 (   474 PWs)   bands (ev):

   -67.6257 -33.9405 -33.6822 -33.5536  13.8949  16.1586  17.6061  19.3195
    19.8127  19.8649  28.0335  36.4988

          k = 0.0000 0.5000-0.5000 (   476 PWs)   bands (ev):

   -67.6183 -33.9802 -33.6955 -33.5539  14.1797  16.0488  18.4086  19.3636
    19.8517  20.2029  26.2502  35.9880

          k =-0.1000-0.1000 0.2000 (   465 PWs)   bands (ev):

   -67.6754 -33.6695 -33.5814 -33.5629  10.7640  16.9992  17.0849  18.0038
    19.2547  19.6652  37.9978  39.1470

          k =-0.1000-0.2000 0.3000 (   468 PWs)   bands (ev):

   -67.6536 -33.7820 -33.6247 -33.5675  12.1712  16.6490  16.8629  18.8364
    19.1145  19.7651  34.1217  36.9239

          k =-0.1000-0.3000 0.4000 (   469 PWs)   bands (ev):

   -67.6316 -33.8914 -33.6726 -33.5686  13.6678  16.3000  16.9006  19.1917
    19.6973  20.0083  29.9377  35.4054

          k =-0.1000 0.6000-0.5000 (   467 PWs)   bands (ev):

   -67.6180 -33.9575 -33.7029 -33.5685  14.3463  16.1004  17.5771  19.3148
    19.8836  20.8581  26.7971  34.5528

          k =-0.2000-0.2000 0.4000 (   465 PWs)   bands (ev):

   -67.6339 -33.8609 -33.6688 -33.5858  13.6136  16.4074  16.5391  19.0740
    19.6639  20.1632  32.1889  32.8814

          k =-0.2000 0.7000-0.5000 (   473 PWs)   bands (ev):

   -67.6182 -33.9118 -33.7259 -33.5934  14.7298  16.1511  16.6372  19.2176
    19.7859  21.5423  28.5158  31.3890

          k =-0.2000 0.6000-0.4000 (   474 PWs)   bands (ev):

   -67.6122 -33.9276 -33.7520 -33.5952  14.9710  16.0980  16.8988  19.3251
    19.7939  22.7632  26.3187  30.9384

          k =-0.3000 0.7000-0.4000 (   471 PWs)   bands (ev):

   -67.6098 -33.8850 -33.8015 -33.6051  15.4458  16.0756  16.4128  19.3943
    19.6684  23.8515  27.0416  28.3458

          k = 0.0000 0.0000 0.2000 (   458 PWs)   bands (ev):

   -67.6814 -33.6066 -33.5799 -33.5799  10.3804  17.2748  17.2748  17.5288
    19.1329  19.7682  39.4134  41.3399

          k = 0.0000-0.1000 0.3000 (   468 PWs)   bands (ev):

   -67.6626 -33.7026 -33.6173 -33.5868  11.5050  17.0440  17.2068  18.1118
    18.7446  19.8944  36.4041  39.2054

          k = 0.0000-0.2000 0.4000 (   468 PWs)   bands (ev):

   -67.6390 -33.8289 -33.6619 -33.5855  13.0417  16.6945  16.9881  18.7553
    19.0034  20.0259  32.0971  37.4477

          k = 0.0000-0.3000 0.5000 (   472 PWs)   bands (ev):

   -67.6200 -33.9305 -33.6979 -33.5838  14.1997  16.4198  17.1521  18.9982
    19.8279  20.4262  28.2143  36.2744

          k = 0.0000 0.6000-0.4000 (   460 PWs)   bands (ev):

   -67.6123 -33.9681 -33.7109 -33.5824  14.4786  16.3174  17.5056  19.0592
    20.1746  21.0417  26.2778  35.8627

          k =-0.1000-0.1000 0.4000 (   464 PWs)   bands (ev):

   -67.6417 -33.7867 -33.6586 -33.6088  12.8136  16.9380  17.0251  18.4438
    18.7637  20.0917  34.3904  35.2265

          k =-0.1000-0.2000 0.5000 (   465 PWs)   bands (ev):

   -67.6209 -33.8795 -33.7089 -33.6122  14.2082  16.5398  16.8885  18.6387
    19.5224  20.6357  30.4327  33.3790

          k =-0.1000 0.7000-0.4000 (   463 PWs)   bands (ev):

   -67.6079 -33.9373 -33.7412 -33.6115  14.8803  16.4975  16.8257  18.8692
    19.8955  22.0025  27.0084  32.5006

          k =-0.2000 0.2000 0.2000 (   465 PWs)   bands (ev):

   -67.6591 -33.7654 -33.5846 -33.5846  11.8564  16.6836  16.6836  18.8498
    19.4861  19.4861  36.1042  36.1042

          k =-0.2000 0.8000-0.4000 (   461 PWs)   bands (ev):

   -67.6061 -33.9023 -33.7768 -33.6217  15.2509  16.1370  16.7796  18.8704
    19.6534  22.3741  28.9287  29.5900

          k =-0.2000 0.7000-0.3000 (   466 PWs)   bands (ev):

   -67.6007 -33.9002 -33.8159 -33.6235  15.6186  16.2997  16.3755  19.1060
    19.6234  24.2948  26.4314  28.9121

          k =-0.3000 0.3000 0.2000 (   469 PWs)   bands (ev):

   -67.6390 -33.8563 -33.6388 -33.5883  13.3759  16.2912  16.4310  19.4269
    19.6878  19.9398  32.1879  34.5140

          k = 0.6000-0.6000 0.2000 (   474 PWs)   bands (ev):

   -67.6227 -33.9173 -33.6951 -33.5910  14.5084  16.0224  16.7149  19.4803
    19.8206  21.1984  28.3178  33.4511

          k = 0.6000-0.7000 0.3000 (   478 PWs)   bands (ev):

   -67.6246 -33.8934 -33.6823 -33.6187  14.7174  16.0515  16.1359  19.5427
    19.7877  21.3809  30.4751  31.1257

          k = 0.5000-0.5000 0.2000 (   472 PWs)   bands (ev):

   -67.6164 -33.9375 -33.7189 -33.5922  14.7257  15.9278  17.2144  19.5184
    19.8679  22.1298  26.2898  33.0708

          k = 0.5000-0.6000 0.3000 (   472 PWs)   bands (ev):

   -67.6153 -33.8903 -33.7428 -33.6278  15.2625  15.9091  16.4526  19.6278
    19.8438  23.2039  27.2190  30.0696

          k = 0.4000-0.6000 0.4000 (   475 PWs)   bands (ev):

   -67.6125 -33.8210 -33.8210 -33.6420  15.5291  16.1252  16.1252  19.7614
    19.7614  25.7662  25.7662  27.8989

          k = 0.0000 0.0000 0.4000 (   470 PWs)   bands (ev):

   -67.6449 -33.7216 -33.6550 -33.6550  12.5270  17.4246  17.4246  17.9172
    18.1651  20.1396  36.6445  37.4506

          k = 0.0000-0.1000 0.5000 (   461 PWs)   bands (ev):

   -67.6226 -33.8148 -33.7006 -33.6670  13.8754  16.9304  17.3470  18.0403
    18.8929  20.4767  32.8914  35.4057

          k = 0.0000-0.2000 0.6000 (   458 PWs)   bands (ev):

   -67.6046 -33.9040 -33.7376 -33.6618  14.8972  16.4419  17.1589  18.4415
    19.7334  21.5409  28.7913  33.8881

          k = 0.0000 0.7000-0.3000 (   464 PWs)   bands (ev):

   -67.5980 -33.9387 -33.7525 -33.6596  15.1510  16.4020  17.0813  18.5080
    20.1008  22.9162  26.3985  33.2793

          k =-0.1000-0.1000 0.6000 (   467 PWs)   bands (ev):

   -67.6037 -33.8672 -33.7573 -33.6862  14.9086  16.3283  17.4687  18.3301
    19.4178  21.4567  31.1959  31.5111

          k =-0.1000 0.8000-0.3000 (   466 PWs)   bands (ev):

   -67.5918 -33.9054 -33.7981 -33.6856  15.4743  15.9831  17.2576  18.7228
    19.8080  23.5311  27.5610  30.4047

          k =-0.2000 0.8000-0.2000 (   469 PWs)   bands (ev):

   -67.5869 -33.8669 -33.8669 -33.6880  15.7777  15.7777  17.0484  19.4180
    19.4180  26.2391  26.2391  27.9178

          k = 0.6000-0.6000 0.4000 (   471 PWs)   bands (ev):

   -67.6165 -33.8713 -33.6924 -33.6924  15.7137  15.8697  15.8697  19.8105
    19.8105  23.2688  29.3963  29.3963

          k = 0.5000-0.5000 0.4000 (   470 PWs)   bands (ev):

   -67.6134 -33.8281 -33.7557 -33.6966  15.7239  15.8163  16.1674  19.8323
    19.8943  25.3101  26.7746  29.0205

          k = 0.0000 0.0000 0.6000 (   462 PWs)   bands (ev):

   -67.6025 -33.8151 -33.7492 -33.7492  14.7496  16.4674  18.0637  18.0637
    18.9750  21.1903  33.0732  33.0732

          k = 0.0000-0.1000 0.7000 (   464 PWs)   bands (ev):

   -67.5863 -33.8723 -33.7883 -33.7587  15.2557  15.8524  18.2170  18.5108
    19.6276  22.8308  29.6129  31.3577

          k = 0.0000 0.8000-0.2000 (   470 PWs)   bands (ev):

   -67.5803 -33.9018 -33.8037 -33.7548  15.4243  15.5913  18.1995  18.6477
    20.0104  24.9411  26.7397  30.6741

          k =-0.1000 0.9000-0.2000 (   468 PWs)   bands (ev):

   -67.5758 -33.8787 -33.8396 -33.7688  15.3495  15.4592  18.3009  19.2474
    19.7878  25.1678  28.2707  28.6860

          k = 0.0000 0.0000 0.8000 (   466 PWs)   bands (ev):

   -67.5714 -33.8535 -33.8288 -33.8288  15.1534  15.3549  19.1810  19.1810
    19.6488  24.6195  29.4509  29.4509

          k = 0.0000 0.9000-0.1000 (   474 PWs)   bands (ev):

   -67.5659 -33.8718 -33.8439 -33.8314  15.1062  15.1228  19.3567  19.4853
    19.9379  26.8551  27.3701  28.6915

          k = 0.0000 0.0000-1.0000 (   466 PWs)   bands (ev):

   -67.5600 -33.8594 -33.8594 -33.8594  14.9453  14.9453  19.9104  19.9104
    19.9104  27.8649  27.8649  27.8649

     the Fermi energy is    17.8437 ev

!    total energy              =    -329.26299583 Ry
     Harris-Foulkes estimate   =    -329.26299583 Ry
     estimated scf accuracy    <          5.6E-10 Ry

     total all-electron energy =     -2545.559531 Ry

     The total energy is the sum of the following terms:

     one-electron contribution =    -111.50167005 Ry
     hartree contribution      =      66.04356167 Ry
     xc contribution           =     -34.80883183 Ry
     ewald contribution        =    -172.84670930 Ry
     one-center paw contrib.   =     -76.15067351 Ry
     smearing contrib. (-TS)   =       0.00132719 Ry

     total magnetization       =     2.09 Bohr mag/cell
     absolute magnetization    =     2.22 Bohr mag/cell

     convergence has been achieved in  14 iterations

     Forces acting on atoms (Ry/au):


     negative rho (up, down):  0.000E+00 1.480E-04
     atom    1 type  1   force =     0.00000000    0.00000000    0.00000000

     Total force =     0.000000     Total SCF correction =     0.000000


     entering subroutine stress ...


     negative rho (up, down):  0.000E+00 1.480E-04
          total   stress  (Ry/bohr**3)                   (kbar)     P= -133.21
  -0.00090556   0.00000000  -0.00000000       -133.21      0.00     -0.00
   0.00000000  -0.00090556   0.00000000          0.00   -133.21      0.00
  -0.00000000   0.00000000  -0.00090556         -0.00      0.00   -133.21


     Writing output data file Fe_bcc.save

     init_run     :      1.82s CPU      1.88s WALL (       1 calls)
     electrons    :     34.59s CPU     35.05s WALL (       1 calls)
     forces       :      0.14s CPU      0.14s WALL (       1 calls)
     stress       :      0.54s CPU      0.55s WALL (       1 calls)

     Called by init_run:
     wfcinit      :      0.77s CPU      0.77s WALL (       1 calls)
     potinit      :      0.53s CPU      0.57s WALL (       1 calls)

     Called by electrons:
     c_bands      :     22.83s CPU     22.90s WALL (      14 calls)
     sum_band     :      4.19s CPU      4.30s WALL (      14 calls)
     v_of_rho     :      0.33s CPU      0.35s WALL (      15 calls)
     newd         :      0.24s CPU      0.25s WALL (      15 calls)
     mix_rho      :      0.04s CPU      0.04s WALL (      14 calls)

     Called by c_bands:
     init_us_2    :      0.50s CPU      0.51s WALL (    2914 calls)
     cegterg      :     21.87s CPU     21.90s WALL (    1316 calls)

     Called by *egterg:
     h_psi        :     18.72s CPU     18.99s WALL (    4056 calls)
     s_psi        :      0.55s CPU      0.41s WALL (    4056 calls)
     g_psi        :      0.10s CPU      0.10s WALL (    2646 calls)
     cdiaghg      :      1.13s CPU      1.15s WALL (    3962 calls)

     Called by h_psi:
     add_vuspsi   :      0.57s CPU      0.47s WALL (    4056 calls)

     General routines
     calbec       :      0.56s CPU      0.58s WALL (    5560 calls)
     fft          :      0.18s CPU      0.19s WALL (     499 calls)
     ffts         :      0.02s CPU      0.02s WALL (      58 calls)
     fftw         :     19.14s CPU     19.49s WALL (   90732 calls)
     interpolate  :      0.05s CPU      0.05s WALL (      58 calls)
     davcio       :      0.00s CPU      0.00s WALL (      94 calls)


     PAW routines
     PAW_pot      :      7.44s CPU      7.73s WALL (      15 calls)
     PAW_symme    :      0.02s CPU      0.02s WALL (      29 calls)

     PWSCF        :    37.63s CPU        38.25s WALL


   This run was terminated on:  10:27:45  11May2015            

=------------------------------------------------------------------------------=
   JOB DONE.
=------------------------------------------------------------------------------=
