
     Program PWSCF v.5.1.2 starts on 11May2015 at 10:26:28 

     This program is part of the open-source Quantum ESPRESSO suite
     for quantum simulation of materials; please cite
         "P. Giannozzi et al., J. Phys.:Condens. Matter 21 395502 (2009);
          URL http://www.quantum-espresso.org", 
     in publications or presentations arising from this work. More details at
     http://www.quantum-espresso.org/quote

     Serial version
     Reading input from Fe_bcc_5.38_10.pw.in

     Current dimensions of program PWSCF are:
     Max number of different atomic species (ntypx) = 10
     Max number of k-points (npk) =  40000
     Max angular momentum in pseudopotentials (lmaxx) =  3
               file Fe.pbe-spn-kjpaw_psl.0.2.1.UPF: wavefunction(s)  3D renormalized

     G-vector sticks info
     --------------------
     sticks:   dense  smooth     PW     G-vecs:    dense   smooth      PW
     Sum         411     333    103                 5233     3781     683

     Generating pointlists ...
     new r_m :   0.3572 (alat units)  1.9219 (a.u.) for type    1


     bravais-lattice index     =            3
     lattice parameter (alat)  =       5.3800  a.u.
     unit-cell volume          =      77.8604 (a.u.)^3
     number of atoms/cell      =            1
     number of atomic types    =            1
     number of electrons       =        16.00
     number of Kohn-Sham states=           12
     kinetic-energy cutoff     =      50.0000  Ry
     charge density cutoff     =     250.0000  Ry
     convergence threshold     =      1.0E-08
     mixing beta               =       0.7000
     number of iterations used =            8  plain     mixing
     Exchange-correlation      =  SLA  PW   PBX  PBC ( 1  4  3  4 0 0)

     celldm(1)=   5.380000  celldm(2)=   0.000000  celldm(3)=   0.000000
     celldm(4)=   0.000000  celldm(5)=   0.000000  celldm(6)=   0.000000

     crystal axes: (cart. coord. in units of alat)
               a(1) = (   0.500000   0.500000   0.500000 )  
               a(2) = (  -0.500000   0.500000   0.500000 )  
               a(3) = (  -0.500000  -0.500000   0.500000 )  

     reciprocal axes: (cart. coord. in units 2 pi/alat)
               b(1) = (  1.000000  0.000000  1.000000 )  
               b(2) = ( -1.000000  1.000000  0.000000 )  
               b(3) = (  0.000000 -1.000000  1.000000 )  


     PseudoPot. # 1 for Fe read from file:
     ./Fe.pbe-spn-kjpaw_psl.0.2.1.UPF
     MD5 check sum: a0a08122d52b112de96d1da1d7dd020f
     Pseudo is Projector augmented-wave + core cor, Zval = 16.0
     Generated using "atomic" code by A. Dal Corso  v.5.0.2 svn rev. 9415
     Shape of augmentation charge: PSQ
     Using radial grid of 1191 points,  6 beta functions with: 
                l(1) =   0
                l(2) =   0
                l(3) =   1
                l(4) =   1
                l(5) =   2
                l(6) =   2
     Q(r) pseudized with 0 coefficients 


     atomic species   valence    mass     pseudopotential
        Fe            16.00    55.85000     Fe( 1.00)

     Starting magnetic structure 
     atomic species   magnetization
        Fe           0.700

     48 Sym. Ops., with inversion, found



   Cartesian axes

     site n.     atom                  positions (alat units)
         1           Fe  tau(   1) = (   0.0000000   0.0000000   0.0000000  )

     number of k points=    94  Marzari-Vanderbilt smearing, width (Ry)=  0.0250
                       cart. coord. in units 2pi/alat
        k(    1) = (   0.0000000   0.0000000   0.0000000), wk =   0.0010000
        k(    2) = (   0.0000000  -0.1000000   0.1000000), wk =   0.0120000
        k(    3) = (   0.0000000  -0.2000000   0.2000000), wk =   0.0120000
        k(    4) = (   0.0000000  -0.3000000   0.3000000), wk =   0.0120000
        k(    5) = (   0.0000000  -0.4000000   0.4000000), wk =   0.0120000
        k(    6) = (   0.0000000   0.5000000  -0.5000000), wk =   0.0060000
        k(    7) = (  -0.1000000  -0.1000000   0.2000000), wk =   0.0240000
        k(    8) = (  -0.1000000  -0.2000000   0.3000000), wk =   0.0480000
        k(    9) = (  -0.1000000  -0.3000000   0.4000000), wk =   0.0480000
        k(   10) = (  -0.1000000   0.6000000  -0.5000000), wk =   0.0480000
        k(   11) = (  -0.2000000  -0.2000000   0.4000000), wk =   0.0240000
        k(   12) = (  -0.2000000   0.7000000  -0.5000000), wk =   0.0480000
        k(   13) = (  -0.2000000   0.6000000  -0.4000000), wk =   0.0240000
        k(   14) = (  -0.3000000   0.7000000  -0.4000000), wk =   0.0240000
        k(   15) = (   0.0000000   0.0000000   0.2000000), wk =   0.0060000
        k(   16) = (   0.0000000  -0.1000000   0.3000000), wk =   0.0240000
        k(   17) = (   0.0000000  -0.2000000   0.4000000), wk =   0.0240000
        k(   18) = (   0.0000000  -0.3000000   0.5000000), wk =   0.0240000
        k(   19) = (   0.0000000   0.6000000  -0.4000000), wk =   0.0120000
        k(   20) = (  -0.1000000  -0.1000000   0.4000000), wk =   0.0240000
        k(   21) = (  -0.1000000  -0.2000000   0.5000000), wk =   0.0480000
        k(   22) = (  -0.1000000   0.7000000  -0.4000000), wk =   0.0480000
        k(   23) = (  -0.2000000   0.2000000   0.2000000), wk =   0.0080000
        k(   24) = (  -0.2000000   0.8000000  -0.4000000), wk =   0.0240000
        k(   25) = (  -0.2000000   0.7000000  -0.3000000), wk =   0.0240000
        k(   26) = (  -0.3000000   0.3000000   0.2000000), wk =   0.0240000
        k(   27) = (   0.6000000  -0.6000000   0.2000000), wk =   0.0240000
        k(   28) = (   0.6000000  -0.7000000   0.3000000), wk =   0.0240000
        k(   29) = (   0.5000000  -0.5000000   0.2000000), wk =   0.0120000
        k(   30) = (   0.5000000  -0.6000000   0.3000000), wk =   0.0480000
        k(   31) = (   0.4000000  -0.6000000   0.4000000), wk =   0.0080000
        k(   32) = (   0.0000000   0.0000000   0.4000000), wk =   0.0060000
        k(   33) = (   0.0000000  -0.1000000   0.5000000), wk =   0.0240000
        k(   34) = (   0.0000000  -0.2000000   0.6000000), wk =   0.0240000
        k(   35) = (   0.0000000   0.7000000  -0.3000000), wk =   0.0120000
        k(   36) = (  -0.1000000  -0.1000000   0.6000000), wk =   0.0240000
        k(   37) = (  -0.1000000   0.8000000  -0.3000000), wk =   0.0480000
        k(   38) = (  -0.2000000   0.8000000  -0.2000000), wk =   0.0080000
        k(   39) = (   0.6000000  -0.6000000   0.4000000), wk =   0.0080000
        k(   40) = (   0.5000000  -0.5000000   0.4000000), wk =   0.0120000
        k(   41) = (   0.0000000   0.0000000   0.6000000), wk =   0.0060000
        k(   42) = (   0.0000000  -0.1000000   0.7000000), wk =   0.0240000
        k(   43) = (   0.0000000   0.8000000  -0.2000000), wk =   0.0120000
        k(   44) = (  -0.1000000   0.9000000  -0.2000000), wk =   0.0240000
        k(   45) = (   0.0000000   0.0000000   0.8000000), wk =   0.0060000
        k(   46) = (   0.0000000   0.9000000  -0.1000000), wk =   0.0120000
        k(   47) = (   0.0000000   0.0000000  -1.0000000), wk =   0.0010000
        k(   48) = (   0.0000000   0.0000000   0.0000000), wk =   0.0010000
        k(   49) = (   0.0000000  -0.1000000   0.1000000), wk =   0.0120000
        k(   50) = (   0.0000000  -0.2000000   0.2000000), wk =   0.0120000
        k(   51) = (   0.0000000  -0.3000000   0.3000000), wk =   0.0120000
        k(   52) = (   0.0000000  -0.4000000   0.4000000), wk =   0.0120000
        k(   53) = (   0.0000000   0.5000000  -0.5000000), wk =   0.0060000
        k(   54) = (  -0.1000000  -0.1000000   0.2000000), wk =   0.0240000
        k(   55) = (  -0.1000000  -0.2000000   0.3000000), wk =   0.0480000
        k(   56) = (  -0.1000000  -0.3000000   0.4000000), wk =   0.0480000
        k(   57) = (  -0.1000000   0.6000000  -0.5000000), wk =   0.0480000
        k(   58) = (  -0.2000000  -0.2000000   0.4000000), wk =   0.0240000
        k(   59) = (  -0.2000000   0.7000000  -0.5000000), wk =   0.0480000
        k(   60) = (  -0.2000000   0.6000000  -0.4000000), wk =   0.0240000
        k(   61) = (  -0.3000000   0.7000000  -0.4000000), wk =   0.0240000
        k(   62) = (   0.0000000   0.0000000   0.2000000), wk =   0.0060000
        k(   63) = (   0.0000000  -0.1000000   0.3000000), wk =   0.0240000
        k(   64) = (   0.0000000  -0.2000000   0.4000000), wk =   0.0240000
        k(   65) = (   0.0000000  -0.3000000   0.5000000), wk =   0.0240000
        k(   66) = (   0.0000000   0.6000000  -0.4000000), wk =   0.0120000
        k(   67) = (  -0.1000000  -0.1000000   0.4000000), wk =   0.0240000
        k(   68) = (  -0.1000000  -0.2000000   0.5000000), wk =   0.0480000
        k(   69) = (  -0.1000000   0.7000000  -0.4000000), wk =   0.0480000
        k(   70) = (  -0.2000000   0.2000000   0.2000000), wk =   0.0080000
        k(   71) = (  -0.2000000   0.8000000  -0.4000000), wk =   0.0240000
        k(   72) = (  -0.2000000   0.7000000  -0.3000000), wk =   0.0240000
        k(   73) = (  -0.3000000   0.3000000   0.2000000), wk =   0.0240000
        k(   74) = (   0.6000000  -0.6000000   0.2000000), wk =   0.0240000
        k(   75) = (   0.6000000  -0.7000000   0.3000000), wk =   0.0240000
        k(   76) = (   0.5000000  -0.5000000   0.2000000), wk =   0.0120000
        k(   77) = (   0.5000000  -0.6000000   0.3000000), wk =   0.0480000
        k(   78) = (   0.4000000  -0.6000000   0.4000000), wk =   0.0080000
        k(   79) = (   0.0000000   0.0000000   0.4000000), wk =   0.0060000
        k(   80) = (   0.0000000  -0.1000000   0.5000000), wk =   0.0240000
        k(   81) = (   0.0000000  -0.2000000   0.6000000), wk =   0.0240000
        k(   82) = (   0.0000000   0.7000000  -0.3000000), wk =   0.0120000
        k(   83) = (  -0.1000000  -0.1000000   0.6000000), wk =   0.0240000
        k(   84) = (  -0.1000000   0.8000000  -0.3000000), wk =   0.0480000
        k(   85) = (  -0.2000000   0.8000000  -0.2000000), wk =   0.0080000
        k(   86) = (   0.6000000  -0.6000000   0.4000000), wk =   0.0080000
        k(   87) = (   0.5000000  -0.5000000   0.4000000), wk =   0.0120000
        k(   88) = (   0.0000000   0.0000000   0.6000000), wk =   0.0060000
        k(   89) = (   0.0000000  -0.1000000   0.7000000), wk =   0.0240000
        k(   90) = (   0.0000000   0.8000000  -0.2000000), wk =   0.0120000
        k(   91) = (  -0.1000000   0.9000000  -0.2000000), wk =   0.0240000
        k(   92) = (   0.0000000   0.0000000   0.8000000), wk =   0.0060000
        k(   93) = (   0.0000000   0.9000000  -0.1000000), wk =   0.0120000
        k(   94) = (   0.0000000   0.0000000  -1.0000000), wk =   0.0010000

     Dense  grid:     5233 G-vectors     FFT dimensions: (  24,  24,  24)

     Smooth grid:     3781 G-vectors     FFT dimensions: (  24,  24,  24)

     Largest allocated arrays     est. size (Mb)     dimensions
        Kohn-Sham Wavefunctions         0.09 Mb     (     476,   12)
        NL pseudopotentials             0.13 Mb     (     476,   18)
        Each V/rho on FFT grid          0.42 Mb     (   13824,   2)
        Each G-vector array             0.04 Mb     (    5233)
        G-vector shells                 0.00 Mb     (      86)
     Largest temporary arrays     est. size (Mb)     dimensions
        Auxiliary wavefunctions         0.35 Mb     (     476,   48)
        Each subspace H/S matrix        0.04 Mb     (      48,   48)
        Each <psi_i|beta_j> matrix      0.00 Mb     (      18,   12)
        Arrays for rho mixing           1.69 Mb     (   13824,    8)

     Check: negative/imaginary core charge=   -0.000425    0.000000

     Initial potential from superposition of free atoms

     starting charge   15.99956, renormalised to   16.00000
     Starting wfc are   13 randomized atomic wfcs

     total cpu time spent up to now is        2.2 secs

     Self-consistent Calculation

     iteration #  1     ecut=    50.00 Ry     beta=0.70
     Davidson diagonalization with overlap
     ethr =  1.00E-02,  avg # of iterations =  3.3

     negative rho (up, down):  0.000E+00 3.306E-04

     Magnetic moment per site:
     atom:    1    charge:   14.2791    magn:    5.6846    constr:    0.0000

     total cpu time spent up to now is        5.1 secs

     total energy              =    -328.98577243 Ry
     Harris-Foulkes estimate   =    -328.05557739 Ry
     estimated scf accuracy    <       1.51529021 Ry

     total magnetization       =     3.84 Bohr mag/cell
     absolute magnetization    =     3.87 Bohr mag/cell

     iteration #  2     ecut=    50.00 Ry     beta=0.70
     Davidson diagonalization with overlap
     ethr =  9.47E-03,  avg # of iterations =  1.2

     negative rho (up, down):  0.000E+00 3.519E-04

     Magnetic moment per site:
     atom:    1    charge:   14.5043    magn:    3.4525    constr:    0.0000

     total cpu time spent up to now is        7.2 secs

     total energy              =    -329.16377897 Ry
     Harris-Foulkes estimate   =    -329.09801421 Ry
     estimated scf accuracy    <       0.34163546 Ry

     total magnetization       =     3.05 Bohr mag/cell
     absolute magnetization    =     3.17 Bohr mag/cell

     iteration #  3     ecut=    50.00 Ry     beta=0.70
     Davidson diagonalization with overlap
     ethr =  2.14E-03,  avg # of iterations =  2.1

     negative rho (up, down):  0.000E+00 3.545E-04

     Magnetic moment per site:
     atom:    1    charge:   14.3883    magn:    2.4727    constr:    0.0000

     total cpu time spent up to now is        9.8 secs

     total energy              =    -329.18319635 Ry
     Harris-Foulkes estimate   =    -329.34143058 Ry
     estimated scf accuracy    <       0.45647861 Ry

     total magnetization       =     2.49 Bohr mag/cell
     absolute magnetization    =     2.63 Bohr mag/cell

     iteration #  4     ecut=    50.00 Ry     beta=0.70
     Davidson diagonalization with overlap
     ethr =  2.14E-03,  avg # of iterations =  2.0

     negative rho (up, down):  0.000E+00 1.860E-04

     Magnetic moment per site:
     atom:    1    charge:   14.4194    magn:    2.1831    constr:    0.0000

     total cpu time spent up to now is       12.4 secs

     total energy              =    -329.25864389 Ry
     Harris-Foulkes estimate   =    -329.25772810 Ry
     estimated scf accuracy    <       0.00265750 Ry

     total magnetization       =     2.26 Bohr mag/cell
     absolute magnetization    =     2.43 Bohr mag/cell

     iteration #  5     ecut=    50.00 Ry     beta=0.70
     Davidson diagonalization with overlap
     ethr =  1.66E-05,  avg # of iterations =  3.3

     negative rho (up, down):  0.000E+00 1.788E-04

     Magnetic moment per site:
     atom:    1    charge:   14.4028    magn:    2.2027    constr:    0.0000

     total cpu time spent up to now is       15.9 secs

     total energy              =    -329.26273988 Ry
     Harris-Foulkes estimate   =    -329.26243530 Ry
     estimated scf accuracy    <       0.00044890 Ry

     total magnetization       =     2.11 Bohr mag/cell
     absolute magnetization    =     2.26 Bohr mag/cell

     iteration #  6     ecut=    50.00 Ry     beta=0.70
     Davidson diagonalization with overlap
     ethr =  2.81E-06,  avg # of iterations =  2.4

     negative rho (up, down):  0.000E+00 1.242E-04

     Magnetic moment per site:
     atom:    1    charge:   14.4034    magn:    2.1107    constr:    0.0000

     total cpu time spent up to now is       18.7 secs

     total energy              =    -329.26279176 Ry
     Harris-Foulkes estimate   =    -329.26291733 Ry
     estimated scf accuracy    <       0.00044254 Ry

     total magnetization       =     2.10 Bohr mag/cell
     absolute magnetization    =     2.25 Bohr mag/cell

     iteration #  7     ecut=    50.00 Ry     beta=0.70
     Davidson diagonalization with overlap
     ethr =  2.77E-06,  avg # of iterations =  1.5

     negative rho (up, down):  0.000E+00 1.532E-04

     Magnetic moment per site:
     atom:    1    charge:   14.4068    magn:    2.1685    constr:    0.0000

     total cpu time spent up to now is       21.3 secs

     total energy              =    -329.26305070 Ry
     Harris-Foulkes estimate   =    -329.26298859 Ry
     estimated scf accuracy    <       0.00005294 Ry

     total magnetization       =     2.08 Bohr mag/cell
     absolute magnetization    =     2.21 Bohr mag/cell

     iteration #  8     ecut=    50.00 Ry     beta=0.70
     Davidson diagonalization with overlap
     ethr =  3.31E-07,  avg # of iterations =  2.9

     negative rho (up, down):  0.000E+00 1.516E-04

     Magnetic moment per site:
     atom:    1    charge:   14.4079    magn:    2.1616    constr:    0.0000

     total cpu time spent up to now is       23.9 secs

     total energy              =    -329.26309323 Ry
     Harris-Foulkes estimate   =    -329.26308055 Ry
     estimated scf accuracy    <       0.00002018 Ry

     total magnetization       =     2.10 Bohr mag/cell
     absolute magnetization    =     2.23 Bohr mag/cell

     iteration #  9     ecut=    50.00 Ry     beta=0.70
     Davidson diagonalization with overlap
     ethr =  1.26E-07,  avg # of iterations =  1.1

     negative rho (up, down):  0.000E+00 1.455E-04

     Magnetic moment per site:
     atom:    1    charge:   14.4066    magn:    2.1458    constr:    0.0000

     total cpu time spent up to now is       26.1 secs

     total energy              =    -329.26309909 Ry
     Harris-Foulkes estimate   =    -329.26309597 Ry
     estimated scf accuracy    <       0.00001108 Ry

     total magnetization       =     2.09 Bohr mag/cell
     absolute magnetization    =     2.22 Bohr mag/cell

     iteration # 10     ecut=    50.00 Ry     beta=0.70
     Davidson diagonalization with overlap
     ethr =  6.92E-08,  avg # of iterations =  1.3

     negative rho (up, down):  0.000E+00 1.451E-04

     Magnetic moment per site:
     atom:    1    charge:   14.4065    magn:    2.1449    constr:    0.0000

     total cpu time spent up to now is       28.2 secs

     total energy              =    -329.26310167 Ry
     Harris-Foulkes estimate   =    -329.26310127 Ry
     estimated scf accuracy    <       0.00000033 Ry

     total magnetization       =     2.09 Bohr mag/cell
     absolute magnetization    =     2.22 Bohr mag/cell

     iteration # 11     ecut=    50.00 Ry     beta=0.70
     Davidson diagonalization with overlap
     ethr =  2.06E-09,  avg # of iterations =  2.4

     negative rho (up, down):  0.000E+00 1.449E-04

     Magnetic moment per site:
     atom:    1    charge:   14.4065    magn:    2.1445    constr:    0.0000

     total cpu time spent up to now is       30.7 secs

     total energy              =    -329.26310187 Ry
     Harris-Foulkes estimate   =    -329.26310179 Ry
     estimated scf accuracy    <       0.00000013 Ry

     total magnetization       =     2.09 Bohr mag/cell
     absolute magnetization    =     2.22 Bohr mag/cell

     iteration # 12     ecut=    50.00 Ry     beta=0.70
     Davidson diagonalization with overlap
     ethr =  7.94E-10,  avg # of iterations =  1.0

     negative rho (up, down):  0.000E+00 1.448E-04

     Magnetic moment per site:
     atom:    1    charge:   14.4065    magn:    2.1442    constr:    0.0000

     total cpu time spent up to now is       32.9 secs

     total energy              =    -329.26310190 Ry
     Harris-Foulkes estimate   =    -329.26310188 Ry
     estimated scf accuracy    <       0.00000010 Ry

     total magnetization       =     2.09 Bohr mag/cell
     absolute magnetization    =     2.22 Bohr mag/cell

     iteration # 13     ecut=    50.00 Ry     beta=0.70
     Davidson diagonalization with overlap
     ethr =  6.17E-10,  avg # of iterations =  1.0

     negative rho (up, down):  0.000E+00 1.441E-04

     Magnetic moment per site:
     atom:    1    charge:   14.4064    magn:    2.1431    constr:    0.0000

     total cpu time spent up to now is       35.0 secs

     total energy              =    -329.26310191 Ry
     Harris-Foulkes estimate   =    -329.26310190 Ry
     estimated scf accuracy    <       0.00000007 Ry

     total magnetization       =     2.09 Bohr mag/cell
     absolute magnetization    =     2.22 Bohr mag/cell

     iteration # 14     ecut=    50.00 Ry     beta=0.70
     Davidson diagonalization with overlap
     ethr =  4.58E-10,  avg # of iterations =  1.6

     negative rho (up, down):  0.000E+00 1.442E-04

     Magnetic moment per site:
     atom:    1    charge:   14.4064    magn:    2.1431    constr:    0.0000

     total cpu time spent up to now is       37.1 secs

     End of self-consistent calculation

 ------ SPIN UP ------------


          k = 0.0000 0.0000 0.0000 (   459 PWs)   bands (ev):

   -70.1234 -35.9322 -35.9322 -35.9322   9.5173  15.7576  15.7576  15.7576
    16.7412  16.7412  42.7025  42.7025

          k = 0.0000-0.1000 0.1000 (   463 PWs)   bands (ev):

   -70.1165 -35.9706 -35.9447 -35.9319   9.9260  15.6477  15.7396  15.9760
    16.6480  16.7505  40.3060  42.0219

          k = 0.0000-0.2000 0.2000 (   461 PWs)   bands (ev):

   -70.0979 -36.0695 -35.9779 -35.9316  11.0578  15.3676  15.6009  16.5772
    16.5928  16.7828  35.9096  40.0497

          k = 0.0000-0.3000 0.3000 (   464 PWs)   bands (ev):

   -70.0752 -36.1908 -36.0189 -35.9320  12.4353  15.0353  15.6916  16.7520
    16.8391  17.3912  31.2910  38.0141

          k = 0.0000-0.4000 0.4000 (   464 PWs)   bands (ev):

   -70.0567 -36.2884 -36.0513 -35.9317  13.0309  14.7768  16.6857  16.8987
    17.2932  18.1245  27.2146  36.6337

          k = 0.0000 0.5000-0.5000 (   476 PWs)   bands (ev):

   -70.0502 -36.3251 -36.0647 -35.9328  13.0707  14.6803  16.8794  16.9250
    18.4270  18.4521  25.1601  36.1291

          k =-0.1000-0.1000 0.2000 (   459 PWs)   bands (ev):

   -70.1036 -36.0385 -35.9581 -35.9411  10.7043  15.5103  15.5602  16.4318
    16.5316  16.8076  37.8871  39.0932

          k =-0.1000-0.2000 0.3000 (   463 PWs)   bands (ev):

   -70.0831 -36.1426 -35.9982 -35.9450  12.0326  15.1943  15.3669  16.5605
    16.8972  17.2438  33.7334  36.7637

          k =-0.1000-0.3000 0.4000 (   466 PWs)   bands (ev):

   -70.0626 -36.2434 -36.0430 -35.9459  13.0968  14.9013  15.7104  16.7797
    17.0332  18.2902  29.3017  35.2389

          k =-0.1000 0.6000-0.5000 (   467 PWs)   bands (ev):

   -70.0498 -36.3043 -36.0712 -35.9462  13.2725  14.7380  16.3873  16.8610
    17.5358  19.5820  25.8420  34.3953

          k =-0.2000-0.2000 0.4000 (   465 PWs)   bands (ev):

   -70.0647 -36.2155 -36.0391 -35.9624  13.2470  14.8702  15.2503  16.6232
    17.0444  18.4334  31.6857  32.5191

          k =-0.2000 0.7000-0.5000 (   470 PWs)   bands (ev):

   -70.0499 -36.2622 -36.0919 -35.9693  13.7960  14.7375  15.4657  16.8098
    17.2328  20.1966  27.8212  30.9770

          k =-0.2000 0.6000-0.4000 (   474 PWs)   bands (ev):

   -70.0444 -36.2770 -36.1161 -35.9712  13.7883  14.7509  15.6364  16.8843
    17.4067  21.7854  25.3625  30.5278

          k =-0.3000 0.7000-0.4000 (   467 PWs)   bands (ev):

   -70.0419 -36.2379 -36.1608 -35.9803  14.2822  14.6746  15.1337  17.0030
    17.2411  22.8605  26.2872  27.7782

          k = 0.0000 0.0000 0.2000 (   458 PWs)   bands (ev):

   -70.1094 -35.9809 -35.9571 -35.9571  10.3223  15.7650  15.7650  15.9778
    16.3899  16.8786  39.4598  41.4290

          k = 0.0000-0.1000 0.3000 (   464 PWs)   bands (ev):

   -70.0917 -36.0693 -35.9915 -35.9632  11.4134  15.5679  15.6191  16.2414
    16.5232  17.0123  36.1227  39.1392

          k = 0.0000-0.2000 0.4000 (   468 PWs)   bands (ev):

   -70.0696 -36.1859 -36.0332 -35.9621  12.7209  15.2639  15.3632  16.5588
    17.2792  17.3443  31.5667  37.3610

          k = 0.0000-0.3000 0.5000 (   464 PWs)   bands (ev):

   -70.0514 -36.2793 -36.0659 -35.9600  13.2703  15.0237  15.6659  16.7372
    18.0914  18.4627  27.4246  36.4319

          k = 0.0000 0.6000-0.4000 (   460 PWs)   bands (ev):

   -70.0443 -36.3141 -36.0787 -35.9591  13.2898  14.9336  15.9150  16.7153
    18.4010  19.7784  25.2198  35.8836

          k =-0.1000-0.1000 0.4000 (   462 PWs)   bands (ev):

   -70.0720 -36.1469 -36.0298 -35.9837  12.5864  15.1858  15.6061  16.2491
    17.0580  17.4073  33.9410  34.9270

          k =-0.1000-0.2000 0.5000 (   463 PWs)   bands (ev):

   -70.0524 -36.2326 -36.0765 -35.9865  13.5193  14.8541  15.4780  16.5649
    17.4831  18.7161  29.8178  32.9935

          k =-0.1000 0.7000-0.4000 (   460 PWs)   bands (ev):

   -70.0401 -36.2859 -36.1061 -35.9860  13.6467  15.0322  15.3042  16.6955
    17.9837  20.7343  26.1199  32.1192

          k =-0.2000 0.2000 0.2000 (   465 PWs)   bands (ev):

   -70.0884 -36.1275 -35.9614 -35.9614  11.7656  15.2080  15.2080  16.7239
    16.7239  17.2616  35.8976  35.8976

          k =-0.2000 0.8000-0.4000 (   461 PWs)   bands (ev):

   -70.0385 -36.2540 -36.1389 -35.9957  14.1518  14.4385  15.3297  16.8587
    17.5970  21.0512  28.1885  29.1046

          k =-0.2000 0.7000-0.3000 (   466 PWs)   bands (ev):

   -70.0335 -36.2522 -36.1749 -35.9975  14.1720  14.7094  14.9650  17.0697
    17.6480  23.3210  25.5407  28.3624

          k =-0.3000 0.3000 0.2000 (   469 PWs)   bands (ev):

   -70.0695 -36.2113 -36.0115 -35.9647  13.1120  14.8963  15.0570  16.7743
    16.8500  18.4010  31.7370  34.2913

          k = 0.6000-0.6000 0.2000 (   474 PWs)   bands (ev):

   -70.0543 -36.2675 -36.0636 -35.9671  13.6259  14.6908  15.8056  16.8842
    16.9162  19.9135  27.6133  33.2478

          k = 0.6000-0.7000 0.3000 (   472 PWs)   bands (ev):

   -70.0558 -36.2454 -36.0512 -35.9920  14.0960  14.6966  14.9827  16.8564
    16.9431  20.0516  29.9743  30.7200

          k = 0.5000-0.5000 0.2000 (   468 PWs)   bands (ev):

   -70.0481 -36.2858 -36.0854 -35.9677  13.6069  14.6197  16.4029  16.9274
    16.9369  21.2193  25.3124  32.8888

          k = 0.5000-0.6000 0.3000 (   469 PWs)   bands (ev):

   -70.0472 -36.2425 -36.1069 -36.0010  14.1655  14.6472  15.4770  16.9419
    16.9988  22.2547  26.4969  29.6374

          k = 0.4000-0.6000 0.4000 (   463 PWs)   bands (ev):

   -70.0442 -36.1788 -36.1788 -36.0121  14.3577  14.9880  14.9880  17.0029
    17.0029  25.0486  25.0486  27.2990

          k = 0.0000 0.0000 0.4000 (   470 PWs)   bands (ev):

   -70.0752 -36.0866 -36.0268 -36.0268  12.3401  15.4616  15.9486  15.9486
    16.5637  17.3541  36.2743  37.1646

          k = 0.0000-0.1000 0.5000 (   459 PWs)   bands (ev):

   -70.0539 -36.1728 -36.0688 -36.0373  13.3472  14.8604  15.8841  16.3189
    17.2424  18.1050  32.3853  35.0886

          k = 0.0000-0.2000 0.6000 (   458 PWs)   bands (ev):

   -70.0370 -36.2555 -36.1032 -36.0325  13.7186  14.6364  15.7170  16.5353
    18.0061  19.9877  28.0823  33.5827

          k = 0.0000 0.7000-0.3000 (   464 PWs)   bands (ev):

   -70.0308 -36.2877 -36.1170 -36.0305  13.6700  14.7038  15.6485  16.5535
    18.3335  21.8537  25.4584  32.9927

          k =-0.1000-0.1000 0.6000 (   463 PWs)   bands (ev):

   -70.0361 -36.2213 -36.1209 -36.0553  13.8506  14.3379  15.9643  16.6609
    17.6494  19.8254  30.5855  31.1233

          k =-0.1000 0.8000-0.3000 (   459 PWs)   bands (ev):

   -70.0248 -36.2568 -36.1587 -36.0539  13.8689  14.2182  15.8006  16.9703
    18.0289  22.4694  26.8242  29.9539

          k =-0.2000 0.8000-0.2000 (   460 PWs)   bands (ev):

   -70.0202 -36.2220 -36.2220 -36.0555  13.9943  13.9943  15.6929  17.6519
    17.6519  25.4180  25.4180  27.4015

          k = 0.6000-0.6000 0.4000 (   471 PWs)   bands (ev):

   -70.0484 -36.2251 -36.0606 -36.0606  14.6477  14.6477  14.9381  16.9433
    16.9433  22.2785  28.9147  28.9147

          k = 0.5000-0.5000 0.4000 (   466 PWs)   bands (ev):

   -70.0453 -36.1851 -36.1189 -36.0637  14.6192  14.6476  15.1570  16.9563
    16.9645  24.6272  26.0899  28.5629

          k = 0.0000 0.0000 0.6000 (   462 PWs)   bands (ev):

   -70.0351 -36.1730 -36.1139 -36.1139  13.7079  14.3193  16.5677  16.5677
    17.3061  19.4229  32.7523  32.7523

          k = 0.0000-0.1000 0.7000 (   460 PWs)   bands (ev):

   -70.0197 -36.2266 -36.1497 -36.1220  13.7149  13.8817  16.6953  16.9250
    17.9092  21.7153  29.1089  31.0902

          k = 0.0000 0.8000-0.2000 (   458 PWs)   bands (ev):

   -70.0138 -36.2539 -36.1628 -36.1182  13.5987  13.8039  16.6761  17.0361
    18.2506  24.1652  26.0499  30.4746

          k =-0.1000 0.9000-0.2000 (   466 PWs)   bands (ev):

   -70.0099 -36.2328 -36.1972 -36.1317  13.5594  13.5737  16.7907  17.5914
    18.0508  24.4369  27.7426  28.3311

          k = 0.0000 0.0000 0.8000 (   466 PWs)   bands (ev):

   -70.0059 -36.2097 -36.1873 -36.1873  13.3964  13.4146  17.5612  17.5612
    17.9208  23.9404  29.2484  29.2484

          k = 0.0000 0.9000-0.1000 (   474 PWs)   bands (ev):

   -70.0009 -36.2271 -36.2013 -36.1898  13.2419  13.2577  17.6950  17.8166
    18.1840  26.4520  27.0477  28.5449

          k = 0.0000 0.0000-1.0000 (   466 PWs)   bands (ev):

   -69.9954 -36.2156 -36.2156 -36.2156  13.0755  13.0755  18.1587  18.1587
    18.1587  27.7945  27.7945  27.7945

 ------ SPIN DOWN ----------


          k = 0.0000 0.0000 0.0000 (   459 PWs)   bands (ev):

   -67.5827 -33.4352 -33.4352 -33.4352   9.6618  17.4017  17.4017  17.4017
    19.7176  19.7176  42.4343  42.4343

          k = 0.0000-0.1000 0.1000 (   463 PWs)   bands (ev):

   -67.5753 -33.4778 -33.4489 -33.4351  10.0733  17.2723  17.3756  17.6373
    19.5790  19.7279  40.3906  41.9075

          k = 0.0000-0.2000 0.2000 (   461 PWs)   bands (ev):

   -67.5552 -33.5875 -33.4854 -33.4348  11.2321  16.9442  17.2419  18.2891
    19.3628  19.7679  36.3650  40.1249

          k = 0.0000-0.3000 0.3000 (   464 PWs)   bands (ev):

   -67.5305 -33.7219 -33.5303 -33.4353  12.8171  16.5587  17.1286  19.1811
    19.3393  19.8450  32.0044  38.1030

          k = 0.0000-0.4000 0.4000 (   464 PWs)   bands (ev):

   -67.5104 -33.8298 -33.5658 -33.4350  13.9921  16.2611  17.7252  19.4383
    19.9316  19.9966  28.2103  36.6813

          k = 0.0000 0.5000-0.5000 (   476 PWs)   bands (ev):

   -67.5031 -33.8704 -33.5802 -33.4360  14.2721  16.1505  18.5300  19.4827
    19.9710  20.3372  26.4229  36.1578

          k =-0.1000-0.1000 0.2000 (   459 PWs)   bands (ev):

   -67.5613 -33.5532 -33.4639 -33.4452  10.8636  17.1082  17.1943  18.1209
    19.3693  19.7829  38.1831  39.3422

          k =-0.1000-0.2000 0.3000 (   463 PWs)   bands (ev):

   -67.5391 -33.6684 -33.5078 -33.4495  12.2723  16.7551  16.9702  18.9599
    19.2294  19.8838  34.3078  37.1129

          k =-0.1000-0.3000 0.4000 (   466 PWs)   bands (ev):

   -67.5167 -33.7798 -33.5569 -33.4506  13.7686  16.4036  17.0105  19.3088
    19.8225  20.1342  30.1169  35.5907

          k =-0.1000 0.6000-0.5000 (   467 PWs)   bands (ev):

   -67.5028 -33.8472 -33.5878 -33.4510  14.4407  16.2025  17.6922  19.4335
    20.0063  20.9938  26.9697  34.7306

          k =-0.2000-0.2000 0.4000 (   465 PWs)   bands (ev):

   -67.5191 -33.7488 -33.5531 -33.4686  13.7163  16.5101  16.6452  19.1897
    19.7884  20.2907  32.3649  33.0683

          k =-0.2000 0.7000-0.5000 (   470 PWs)   bands (ev):

   -67.5029 -33.8005 -33.6112 -33.4761  14.8307  16.2530  16.7462  19.3354
    19.9082  21.6841  28.6898  31.5716

          k =-0.2000 0.6000-0.4000 (   474 PWs)   bands (ev):

   -67.4968 -33.8167 -33.6378 -33.4781  15.0676  16.2001  17.0080  19.4439
    19.9168  22.9080  26.4889  31.1161

          k =-0.3000 0.7000-0.4000 (   467 PWs)   bands (ev):

   -67.4942 -33.7733 -33.6878 -33.4880  15.5458  16.1790  16.5181  19.5139
    19.7902  24.0026  27.2116  28.5261

          k = 0.0000 0.0000 0.2000 (   458 PWs)   bands (ev):

   -67.5677 -33.4898 -33.4626 -33.4626  10.4753  17.3860  17.3860  17.6420
    19.2461  19.8867  39.5925  41.5336

          k = 0.0000-0.1000 0.3000 (   464 PWs)   bands (ev):

   -67.5484 -33.5874 -33.5003 -33.4695  11.6053  17.1534  17.3170  18.2295
    18.8557  20.0142  36.5913  39.3960

          k = 0.0000-0.2000 0.4000 (   468 PWs)   bands (ev):

   -67.5243 -33.7163 -33.5460 -33.4683  13.1429  16.8011  17.0949  18.8695
    19.1280  20.1474  32.2788  37.6285

          k = 0.0000-0.3000 0.5000 (   464 PWs)   bands (ev):

   -67.5045 -33.8194 -33.5820 -33.4661  14.2970  16.5245  17.2637  19.1156
    19.9593  20.5532  28.3942  36.4546

          k = 0.0000 0.6000-0.4000 (   460 PWs)   bands (ev):

   -67.4969 -33.8581 -33.5959 -33.4652  14.5719  16.4212  17.6158  19.1765
    20.3086  21.1717  26.4498  36.0364

          k =-0.1000-0.1000 0.4000 (   462 PWs)   bands (ev):

   -67.5270 -33.6733 -33.5425 -33.4920  12.9168  17.0441  17.1345  18.5548
    18.8863  20.2140  34.5749  35.4193

          k =-0.1000-0.2000 0.5000 (   463 PWs)   bands (ev):

   -67.5057 -33.7678 -33.5939 -33.4952  14.3096  16.6422  16.9965  18.7538
    19.6489  20.7656  30.6127  33.5630

          k =-0.1000 0.7000-0.4000 (   460 PWs)   bands (ev):

   -67.4924 -33.8265 -33.6267 -33.4946  14.9765  16.6023  16.9328  18.9861
    20.0248  22.1438  27.1803  32.6851

          k =-0.2000 0.2000 0.2000 (   465 PWs)   bands (ev):

   -67.5448 -33.6517 -33.4674 -33.4674  11.9562  16.7897  16.7897  18.9734
    19.6029  19.6029  36.2866  36.2866

          k =-0.2000 0.8000-0.4000 (   461 PWs)   bands (ev):

   -67.4907 -33.7910 -33.6630 -33.5052  15.3514  16.2353  16.8863  18.9886
    19.7791  22.5175  29.0974  29.7701

          k =-0.2000 0.7000-0.3000 (   466 PWs)   bands (ev):

   -67.4851 -33.7888 -33.7029 -33.5070  15.7168  16.4006  16.4789  19.2263
    19.7492  24.4453  26.5975  29.0878

          k =-0.3000 0.3000 0.2000 (   469 PWs)   bands (ev):

   -67.5243 -33.7442 -33.5226 -33.4712  13.4790  16.3945  16.5353  19.5444
    19.8062  20.0718  32.3671  34.6927

          k = 0.6000-0.6000 0.2000 (   474 PWs)   bands (ev):

   -67.5076 -33.8063 -33.5799 -33.4739  14.6077  16.1241  16.8247  19.5991
    19.9398  21.3386  28.4916  33.6262

          k = 0.6000-0.7000 0.3000 (   472 PWs)   bands (ev):

   -67.5093 -33.7817 -33.5666 -33.5014  14.8229  16.1535  16.2406  19.6611
    19.9072  21.5234  30.6498  31.3184

          k = 0.5000-0.5000 0.2000 (   468 PWs)   bands (ev):

   -67.5010 -33.8269 -33.6039 -33.4746  14.8221  16.0293  17.3286  19.6378
    19.9874  22.2733  26.4629  33.2526

          k = 0.5000-0.6000 0.3000 (   469 PWs)   bands (ev):

   -67.4999 -33.7787 -33.6283 -33.5113  15.3626  16.0109  16.5623  19.7472
    19.9637  23.3556  27.3896  30.2489

          k = 0.4000-0.6000 0.4000 (   463 PWs)   bands (ev):

   -67.4969 -33.7080 -33.7080 -33.5238  15.6316  16.2301  16.2301  19.8813
    19.8813  25.9255  25.9255  28.0833

          k = 0.0000 0.0000 0.4000 (   470 PWs)   bands (ev):

   -67.5303 -33.6070 -33.5390 -33.5390  12.6284  17.5369  17.5369  18.0212
    18.2830  20.2622  36.8219  37.6495

          k = 0.0000-0.1000 0.5000 (   459 PWs)   bands (ev):

   -67.5074 -33.7019 -33.5853 -33.5511  13.9788  17.0315  17.4588  18.1533
    19.0165  20.6040  33.0755  35.6032

          k = 0.0000-0.2000 0.6000 (   458 PWs)   bands (ev):

   -67.4891 -33.7927 -33.6232 -33.5461  14.9950  16.5407  17.2690  18.5571
    19.8638  21.6771  28.9656  34.0746

          k = 0.0000 0.7000-0.3000 (   464 PWs)   bands (ev):

   -67.4823 -33.8280 -33.6383 -33.5438  15.2450  16.5021  17.1908  18.6235
    20.2343  23.0579  26.5686  33.4639

          k =-0.1000-0.1000 0.6000 (   463 PWs)   bands (ev):

   -67.4880 -33.7550 -33.6428 -33.5708  15.0087  16.4244  17.5813  18.4475
    19.5449  21.5939  31.3787  31.7025

          k =-0.1000 0.8000-0.3000 (   459 PWs)   bands (ev):

   -67.4758 -33.7937 -33.6845 -33.5695  15.5708  16.0794  17.3686  18.8428
    19.9383  23.6843  27.7348  30.5863

          k =-0.2000 0.8000-0.2000 (   460 PWs)   bands (ev):

   -67.4708 -33.7547 -33.7547 -33.5713  15.8718  15.8718  17.1595  19.5444
    19.5444  26.3998  26.3998  28.1021

          k = 0.6000-0.6000 0.4000 (   471 PWs)   bands (ev):

   -67.5012 -33.7595 -33.5772 -33.5772  15.8196  15.9711  15.9711  19.9300
    19.9300  23.4200  29.5649  29.5649

          k = 0.5000-0.5000 0.4000 (   466 PWs)   bands (ev):

   -67.4979 -33.7154 -33.6417 -33.5808  15.8257  15.9197  16.2734  19.9520
    20.0140  25.4673  26.9417  29.1984

          k = 0.0000 0.0000 0.6000 (   462 PWs)   bands (ev):

   -67.4870 -33.7022 -33.6350 -33.6350  14.8485  16.5616  18.1809  18.1809
    19.0992  21.3247  33.2577  33.2577

          k = 0.0000-0.1000 0.7000 (   460 PWs)   bands (ev):

   -67.4702 -33.7603 -33.6744 -33.6443  15.3499  15.9437  18.3357  18.6310
    19.7572  22.9760  29.7916  31.5448

          k = 0.0000 0.8000-0.2000 (   458 PWs)   bands (ev):

   -67.4638 -33.7900 -33.6890 -33.6403  15.5148  15.6848  18.3193  18.7686
    20.1431  25.1022  26.9088  30.8916

          k =-0.1000 0.9000-0.2000 (   466 PWs)   bands (ev):

   -67.4595 -33.7664 -33.7268 -33.6548  15.4404  15.5484  18.4200  19.3735
    19.9184  25.3270  28.4383  28.8580

          k = 0.0000 0.0000 0.8000 (   466 PWs)   bands (ev):

   -67.4551 -33.7411 -33.7159 -33.7159  15.2423  15.4423  19.3068  19.3068
    19.7785  24.7713  29.6200  29.6200

          k = 0.0000 0.9000-0.1000 (   474 PWs)   bands (ev):

   -67.4495 -33.7596 -33.7313 -33.7185  15.1931  15.2092  19.4840  19.6136
    20.0700  27.0139  27.5339  28.8563

          k = 0.0000 0.0000-1.0000 (   466 PWs)   bands (ev):

   -67.4435 -33.7470 -33.7470 -33.7470  15.0303  15.0303  20.0422  20.0422
    20.0422  28.0251  28.0251  28.0251

     the Fermi energy is    17.9700 ev

!    total energy              =    -329.26310196 Ry
     Harris-Foulkes estimate   =    -329.26310194 Ry
     estimated scf accuracy    <          2.0E-09 Ry

     total all-electron energy =     -2545.559637 Ry

     The total energy is the sum of the following terms:

     one-electron contribution =    -110.98943075 Ry
     hartree contribution      =      65.85626802 Ry
     xc contribution           =     -34.81239270 Ry
     ewald contribution        =    -173.16798571 Ry
     one-center paw contrib.   =     -76.15084501 Ry
     smearing contrib. (-TS)   =       0.00128420 Ry

     total magnetization       =     2.09 Bohr mag/cell
     absolute magnetization    =     2.22 Bohr mag/cell

     convergence has been achieved in  14 iterations

     Forces acting on atoms (Ry/au):


     negative rho (up, down):  0.000E+00 1.442E-04
     atom    1 type  1   force =     0.00000000    0.00000000    0.00000000

     Total force =     0.000000     Total SCF correction =     0.000000


     entering subroutine stress ...


     negative rho (up, down):  0.000E+00 1.442E-04
          total   stress  (Ry/bohr**3)                   (kbar)     P= -123.40
  -0.00083886   0.00000000  -0.00000000       -123.40      0.00     -0.00
   0.00000000  -0.00083886   0.00000000          0.00   -123.40      0.00
  -0.00000000   0.00000000  -0.00083886         -0.00      0.00   -123.40


     Writing output data file Fe_bcc.save

     init_run     :      1.72s CPU      1.74s WALL (       1 calls)
     electrons    :     34.25s CPU     34.99s WALL (       1 calls)
     forces       :      0.14s CPU      0.15s WALL (       1 calls)
     stress       :      0.55s CPU      0.55s WALL (       1 calls)

     Called by init_run:
     wfcinit      :      0.69s CPU      0.69s WALL (       1 calls)
     potinit      :      0.50s CPU      0.51s WALL (       1 calls)

     Called by electrons:
     c_bands      :     22.57s CPU     22.90s WALL (      14 calls)
     sum_band     :      4.23s CPU      4.35s WALL (      14 calls)
     v_of_rho     :      0.33s CPU      0.34s WALL (      15 calls)
     newd         :      0.22s CPU      0.24s WALL (      15 calls)
     mix_rho      :      0.04s CPU      0.05s WALL (      14 calls)

     Called by c_bands:
     init_us_2    :      0.50s CPU      0.51s WALL (    2914 calls)
     cegterg      :     21.61s CPU     21.91s WALL (    1316 calls)

     Called by *egterg:
     h_psi        :     18.53s CPU     18.92s WALL (    3954 calls)
     s_psi        :      0.49s CPU      0.39s WALL (    3954 calls)
     g_psi        :      0.10s CPU      0.10s WALL (    2544 calls)
     cdiaghg      :      1.13s CPU      1.16s WALL (    3860 calls)

     Called by h_psi:
     add_vuspsi   :      0.51s CPU      0.44s WALL (    3954 calls)

     General routines
     calbec       :      0.56s CPU      0.57s WALL (    5458 calls)
     fft          :      0.18s CPU      0.18s WALL (     499 calls)
     ffts         :      0.02s CPU      0.02s WALL (      58 calls)
     fftw         :     19.00s CPU     19.44s WALL (   91050 calls)
     interpolate  :      0.05s CPU      0.05s WALL (      58 calls)
     davcio       :      0.00s CPU      0.00s WALL (      94 calls)


     PAW routines
     PAW_pot      :      7.32s CPU      7.59s WALL (      15 calls)
     PAW_symme    :      0.02s CPU      0.02s WALL (      29 calls)

     PWSCF        :    37.21s CPU        38.06s WALL


   This run was terminated on:  10:27: 6  11May2015            

=------------------------------------------------------------------------------=
   JOB DONE.
=------------------------------------------------------------------------------=
