
     Program PWSCF v.5.1.2 starts on 11May2015 at 10:16:58 

     This program is part of the open-source Quantum ESPRESSO suite
     for quantum simulation of materials; please cite
         "P. Giannozzi et al., J. Phys.:Condens. Matter 21 395502 (2009);
          URL http://www.quantum-espresso.org", 
     in publications or presentations arising from this work. More details at
     http://www.quantum-espresso.org/quote

     Serial version
     Reading input from Fe_bcc_5.39_8.pw.in

     Current dimensions of program PWSCF are:
     Max number of different atomic species (ntypx) = 10
     Max number of k-points (npk) =  40000
     Max angular momentum in pseudopotentials (lmaxx) =  3
               file Fe.pbe-spn-kjpaw_psl.0.2.1.UPF: wavefunction(s)  3D renormalized

     G-vector sticks info
     --------------------
     sticks:   dense  smooth     PW     G-vecs:    dense   smooth      PW
     Sum         411     333    103                 5233     3781     683

     Generating pointlists ...
     new r_m :   0.3572 (alat units)  1.9255 (a.u.) for type    1


     bravais-lattice index     =            3
     lattice parameter (alat)  =       5.3900  a.u.
     unit-cell volume          =      78.2954 (a.u.)^3
     number of atoms/cell      =            1
     number of atomic types    =            1
     number of electrons       =        16.00
     number of Kohn-Sham states=           12
     kinetic-energy cutoff     =      50.0000  Ry
     charge density cutoff     =     250.0000  Ry
     convergence threshold     =      1.0E-08
     mixing beta               =       0.7000
     number of iterations used =            8  plain     mixing
     Exchange-correlation      =  SLA  PW   PBX  PBC ( 1  4  3  4 0 0)

     celldm(1)=   5.390000  celldm(2)=   0.000000  celldm(3)=   0.000000
     celldm(4)=   0.000000  celldm(5)=   0.000000  celldm(6)=   0.000000

     crystal axes: (cart. coord. in units of alat)
               a(1) = (   0.500000   0.500000   0.500000 )  
               a(2) = (  -0.500000   0.500000   0.500000 )  
               a(3) = (  -0.500000  -0.500000   0.500000 )  

     reciprocal axes: (cart. coord. in units 2 pi/alat)
               b(1) = (  1.000000  0.000000  1.000000 )  
               b(2) = ( -1.000000  1.000000  0.000000 )  
               b(3) = (  0.000000 -1.000000  1.000000 )  


     PseudoPot. # 1 for Fe read from file:
     ./Fe.pbe-spn-kjpaw_psl.0.2.1.UPF
     MD5 check sum: a0a08122d52b112de96d1da1d7dd020f
     Pseudo is Projector augmented-wave + core cor, Zval = 16.0
     Generated using "atomic" code by A. Dal Corso  v.5.0.2 svn rev. 9415
     Shape of augmentation charge: PSQ
     Using radial grid of 1191 points,  6 beta functions with: 
                l(1) =   0
                l(2) =   0
                l(3) =   1
                l(4) =   1
                l(5) =   2
                l(6) =   2
     Q(r) pseudized with 0 coefficients 


     atomic species   valence    mass     pseudopotential
        Fe            16.00    55.85000     Fe( 1.00)

     Starting magnetic structure 
     atomic species   magnetization
        Fe           0.700

     48 Sym. Ops., with inversion, found



   Cartesian axes

     site n.     atom                  positions (alat units)
         1           Fe  tau(   1) = (   0.0000000   0.0000000   0.0000000  )

     number of k points=    58  Marzari-Vanderbilt smearing, width (Ry)=  0.0250
                       cart. coord. in units 2pi/alat
        k(    1) = (   0.0000000   0.0000000   0.0000000), wk =   0.0019531
        k(    2) = (   0.0000000  -0.1250000   0.1250000), wk =   0.0234375
        k(    3) = (   0.0000000  -0.2500000   0.2500000), wk =   0.0234375
        k(    4) = (   0.0000000  -0.3750000   0.3750000), wk =   0.0234375
        k(    5) = (   0.0000000   0.5000000  -0.5000000), wk =   0.0117188
        k(    6) = (  -0.1250000  -0.1250000   0.2500000), wk =   0.0468750
        k(    7) = (  -0.1250000  -0.2500000   0.3750000), wk =   0.0937500
        k(    8) = (  -0.1250000   0.6250000  -0.5000000), wk =   0.0937500
        k(    9) = (  -0.2500000   0.7500000  -0.5000000), wk =   0.0468750
        k(   10) = (  -0.2500000   0.6250000  -0.3750000), wk =   0.0468750
        k(   11) = (   0.0000000   0.0000000   0.2500000), wk =   0.0117188
        k(   12) = (   0.0000000  -0.1250000   0.3750000), wk =   0.0468750
        k(   13) = (   0.0000000  -0.2500000   0.5000000), wk =   0.0468750
        k(   14) = (   0.0000000   0.6250000  -0.3750000), wk =   0.0234375
        k(   15) = (  -0.1250000  -0.1250000   0.5000000), wk =   0.0468750
        k(   16) = (  -0.1250000   0.7500000  -0.3750000), wk =   0.0937500
        k(   17) = (  -0.2500000   0.2500000   0.2500000), wk =   0.0156250
        k(   18) = (  -0.2500000   0.7500000  -0.2500000), wk =   0.0156250
        k(   19) = (   0.6250000  -0.6250000   0.2500000), wk =   0.0468750
        k(   20) = (   0.5000000  -0.5000000   0.2500000), wk =   0.0234375
        k(   21) = (   0.5000000  -0.6250000   0.3750000), wk =   0.0468750
        k(   22) = (   0.0000000   0.0000000   0.5000000), wk =   0.0117188
        k(   23) = (   0.0000000  -0.1250000   0.6250000), wk =   0.0468750
        k(   24) = (   0.0000000   0.7500000  -0.2500000), wk =   0.0234375
        k(   25) = (  -0.1250000   0.8750000  -0.2500000), wk =   0.0468750
        k(   26) = (   0.5000000  -0.5000000   0.5000000), wk =   0.0039062
        k(   27) = (   0.0000000   0.0000000   0.7500000), wk =   0.0117188
        k(   28) = (   0.0000000   0.8750000  -0.1250000), wk =   0.0234375
        k(   29) = (   0.0000000   0.0000000  -1.0000000), wk =   0.0019531
        k(   30) = (   0.0000000   0.0000000   0.0000000), wk =   0.0019531
        k(   31) = (   0.0000000  -0.1250000   0.1250000), wk =   0.0234375
        k(   32) = (   0.0000000  -0.2500000   0.2500000), wk =   0.0234375
        k(   33) = (   0.0000000  -0.3750000   0.3750000), wk =   0.0234375
        k(   34) = (   0.0000000   0.5000000  -0.5000000), wk =   0.0117188
        k(   35) = (  -0.1250000  -0.1250000   0.2500000), wk =   0.0468750
        k(   36) = (  -0.1250000  -0.2500000   0.3750000), wk =   0.0937500
        k(   37) = (  -0.1250000   0.6250000  -0.5000000), wk =   0.0937500
        k(   38) = (  -0.2500000   0.7500000  -0.5000000), wk =   0.0468750
        k(   39) = (  -0.2500000   0.6250000  -0.3750000), wk =   0.0468750
        k(   40) = (   0.0000000   0.0000000   0.2500000), wk =   0.0117188
        k(   41) = (   0.0000000  -0.1250000   0.3750000), wk =   0.0468750
        k(   42) = (   0.0000000  -0.2500000   0.5000000), wk =   0.0468750
        k(   43) = (   0.0000000   0.6250000  -0.3750000), wk =   0.0234375
        k(   44) = (  -0.1250000  -0.1250000   0.5000000), wk =   0.0468750
        k(   45) = (  -0.1250000   0.7500000  -0.3750000), wk =   0.0937500
        k(   46) = (  -0.2500000   0.2500000   0.2500000), wk =   0.0156250
        k(   47) = (  -0.2500000   0.7500000  -0.2500000), wk =   0.0156250
        k(   48) = (   0.6250000  -0.6250000   0.2500000), wk =   0.0468750
        k(   49) = (   0.5000000  -0.5000000   0.2500000), wk =   0.0234375
        k(   50) = (   0.5000000  -0.6250000   0.3750000), wk =   0.0468750
        k(   51) = (   0.0000000   0.0000000   0.5000000), wk =   0.0117188
        k(   52) = (   0.0000000  -0.1250000   0.6250000), wk =   0.0468750
        k(   53) = (   0.0000000   0.7500000  -0.2500000), wk =   0.0234375
        k(   54) = (  -0.1250000   0.8750000  -0.2500000), wk =   0.0468750
        k(   55) = (   0.5000000  -0.5000000   0.5000000), wk =   0.0039062
        k(   56) = (   0.0000000   0.0000000   0.7500000), wk =   0.0117188
        k(   57) = (   0.0000000   0.8750000  -0.1250000), wk =   0.0234375
        k(   58) = (   0.0000000   0.0000000  -1.0000000), wk =   0.0019531

     Dense  grid:     5233 G-vectors     FFT dimensions: (  24,  24,  24)

     Smooth grid:     3781 G-vectors     FFT dimensions: (  24,  24,  24)

     Largest allocated arrays     est. size (Mb)     dimensions
        Kohn-Sham Wavefunctions         0.09 Mb     (     484,   12)
        NL pseudopotentials             0.13 Mb     (     484,   18)
        Each V/rho on FFT grid          0.42 Mb     (   13824,   2)
        Each G-vector array             0.04 Mb     (    5233)
        G-vector shells                 0.00 Mb     (      86)
     Largest temporary arrays     est. size (Mb)     dimensions
        Auxiliary wavefunctions         0.35 Mb     (     484,   48)
        Each subspace H/S matrix        0.04 Mb     (      48,   48)
        Each <psi_i|beta_j> matrix      0.00 Mb     (      18,   12)
        Arrays for rho mixing           1.69 Mb     (   13824,    8)

     Check: negative/imaginary core charge=   -0.000419    0.000000

     Initial potential from superposition of free atoms

     starting charge   15.99956, renormalised to   16.00000
     Starting wfc are   13 randomized atomic wfcs

     total cpu time spent up to now is        2.1 secs

     Self-consistent Calculation

     iteration #  1     ecut=    50.00 Ry     beta=0.70
     Davidson diagonalization with overlap
     ethr =  1.00E-02,  avg # of iterations =  3.2

     negative rho (up, down):  0.000E+00 3.417E-04

     Magnetic moment per site:
     atom:    1    charge:   14.2786    magn:    5.7130    constr:    0.0000

     total cpu time spent up to now is        4.1 secs

     total energy              =    -328.97447004 Ry
     Harris-Foulkes estimate   =    -328.05675999 Ry
     estimated scf accuracy    <       1.50385290 Ry

     total magnetization       =     3.90 Bohr mag/cell
     absolute magnetization    =     3.91 Bohr mag/cell

     iteration #  2     ecut=    50.00 Ry     beta=0.70
     Davidson diagonalization with overlap
     ethr =  9.40E-03,  avg # of iterations =  1.2

     negative rho (up, down):  0.000E+00 3.580E-04

     Magnetic moment per site:
     atom:    1    charge:   14.5106    magn:    3.5004    constr:    0.0000

     total cpu time spent up to now is        5.8 secs

     total energy              =    -329.15704408 Ry
     Harris-Foulkes estimate   =    -329.09679178 Ry
     estimated scf accuracy    <       0.35373399 Ry

     total magnetization       =     3.06 Bohr mag/cell
     absolute magnetization    =     3.17 Bohr mag/cell

     iteration #  3     ecut=    50.00 Ry     beta=0.70
     Davidson diagonalization with overlap
     ethr =  2.21E-03,  avg # of iterations =  2.1

     negative rho (up, down):  0.000E+00 3.632E-04

     Magnetic moment per site:
     atom:    1    charge:   14.3940    magn:    2.4798    constr:    0.0000

     total cpu time spent up to now is        7.8 secs

     total energy              =    -329.18057871 Ry
     Harris-Foulkes estimate   =    -329.34480235 Ry
     estimated scf accuracy    <       0.47255655 Ry

     total magnetization       =     2.54 Bohr mag/cell
     absolute magnetization    =     2.67 Bohr mag/cell

     iteration #  4     ecut=    50.00 Ry     beta=0.70
     Davidson diagonalization with overlap
     ethr =  2.21E-03,  avg # of iterations =  2.0

     negative rho (up, down):  0.000E+00 2.137E-04

     Magnetic moment per site:
     atom:    1    charge:   14.4181    magn:    2.2814    constr:    0.0000

     total cpu time spent up to now is        9.6 secs

     total energy              =    -329.25810299 Ry
     Harris-Foulkes estimate   =    -329.25737568 Ry
     estimated scf accuracy    <       0.00199652 Ry

     total magnetization       =     2.30 Bohr mag/cell
     absolute magnetization    =     2.48 Bohr mag/cell

     iteration #  5     ecut=    50.00 Ry     beta=0.70
     Davidson diagonalization with overlap
     ethr =  1.25E-05,  avg # of iterations =  3.3

     negative rho (up, down):  0.000E+00 1.941E-04

     Magnetic moment per site:
     atom:    1    charge:   14.4126    magn:    2.2503    constr:    0.0000

     total cpu time spent up to now is       12.0 secs

     total energy              =    -329.26109422 Ry
     Harris-Foulkes estimate   =    -329.26097167 Ry
     estimated scf accuracy    <       0.00062549 Ry

     total magnetization       =     2.18 Bohr mag/cell
     absolute magnetization    =     2.35 Bohr mag/cell

     iteration #  6     ecut=    50.00 Ry     beta=0.70
     Davidson diagonalization with overlap
     ethr =  3.91E-06,  avg # of iterations =  1.8

     negative rho (up, down):  0.000E+00 1.203E-04

     Magnetic moment per site:
     atom:    1    charge:   14.4089    magn:    2.1190    constr:    0.0000

     total cpu time spent up to now is       13.9 secs

     total energy              =    -329.26099028 Ry
     Harris-Foulkes estimate   =    -329.26132809 Ry
     estimated scf accuracy    <       0.00027081 Ry

     total magnetization       =     2.15 Bohr mag/cell
     absolute magnetization    =     2.30 Bohr mag/cell

     iteration #  7     ecut=    50.00 Ry     beta=0.70
     Davidson diagonalization with overlap
     ethr =  1.69E-06,  avg # of iterations =  2.3

     negative rho (up, down):  0.000E+00 1.461E-04

     Magnetic moment per site:
     atom:    1    charge:   14.4115    magn:    2.1388    constr:    0.0000

     total cpu time spent up to now is       15.8 secs

     total energy              =    -329.26179826 Ry
     Harris-Foulkes estimate   =    -329.26158746 Ry
     estimated scf accuracy    <       0.00008973 Ry

     total magnetization       =     2.05 Bohr mag/cell
     absolute magnetization    =     2.19 Bohr mag/cell

     iteration #  8     ecut=    50.00 Ry     beta=0.70
     Davidson diagonalization with overlap
     ethr =  5.61E-07,  avg # of iterations =  1.5

     negative rho (up, down):  0.000E+00 1.336E-04

     Magnetic moment per site:
     atom:    1    charge:   14.4119    magn:    2.0897    constr:    0.0000

     total cpu time spent up to now is       17.4 secs

     total energy              =    -329.26178111 Ry
     Harris-Foulkes estimate   =    -329.26180929 Ry
     estimated scf accuracy    <       0.00003730 Ry

     total magnetization       =     2.06 Bohr mag/cell
     absolute magnetization    =     2.20 Bohr mag/cell

     iteration #  9     ecut=    50.00 Ry     beta=0.70
     Davidson diagonalization with overlap
     ethr =  2.33E-07,  avg # of iterations =  2.3

     negative rho (up, down):  0.000E+00 1.305E-04

     Magnetic moment per site:
     atom:    1    charge:   14.4113    magn:    2.0811    constr:    0.0000

     total cpu time spent up to now is       19.2 secs

     total energy              =    -329.26186682 Ry
     Harris-Foulkes estimate   =    -329.26184622 Ry
     estimated scf accuracy    <       0.00000149 Ry

     total magnetization       =     2.03 Bohr mag/cell
     absolute magnetization    =     2.16 Bohr mag/cell

     iteration # 10     ecut=    50.00 Ry     beta=0.70
     Davidson diagonalization with overlap
     ethr =  9.30E-09,  avg # of iterations =  2.6

     negative rho (up, down):  0.000E+00 1.284E-04

     Magnetic moment per site:
     atom:    1    charge:   14.4112    magn:    2.0744    constr:    0.0000

     total cpu time spent up to now is       21.0 secs

     total energy              =    -329.26187537 Ry
     Harris-Foulkes estimate   =    -329.26187126 Ry
     estimated scf accuracy    <       0.00000056 Ry

     total magnetization       =     2.02 Bohr mag/cell
     absolute magnetization    =     2.16 Bohr mag/cell

     iteration # 11     ecut=    50.00 Ry     beta=0.70
     Davidson diagonalization with overlap
     ethr =  3.48E-09,  avg # of iterations =  2.1

     negative rho (up, down):  0.000E+00 1.288E-04

     Magnetic moment per site:
     atom:    1    charge:   14.4113    magn:    2.0741    constr:    0.0000

     total cpu time spent up to now is       22.7 secs

     total energy              =    -329.26187944 Ry
     Harris-Foulkes estimate   =    -329.26187727 Ry
     estimated scf accuracy    <       0.00000004 Ry

     total magnetization       =     2.02 Bohr mag/cell
     absolute magnetization    =     2.15 Bohr mag/cell

     iteration # 12     ecut=    50.00 Ry     beta=0.70
     Davidson diagonalization with overlap
     ethr =  2.47E-10,  avg # of iterations =  2.2

     negative rho (up, down):  0.000E+00 1.263E-04

     Magnetic moment per site:
     atom:    1    charge:   14.4113    magn:    2.0659    constr:    0.0000

     total cpu time spent up to now is       24.4 secs

     total energy              =    -329.26187669 Ry
     Harris-Foulkes estimate   =    -329.26187953 Ry
     estimated scf accuracy    <       0.00000008 Ry

     total magnetization       =     2.01 Bohr mag/cell
     absolute magnetization    =     2.15 Bohr mag/cell

     iteration # 13     ecut=    50.00 Ry     beta=0.70
     Davidson diagonalization with overlap
     ethr =  2.47E-10,  avg # of iterations =  3.1

     negative rho (up, down):  0.000E+00 1.288E-04

     Magnetic moment per site:
     atom:    1    charge:   14.4113    magn:    2.0734    constr:    0.0000

     total cpu time spent up to now is       26.4 secs

     total energy              =    -329.26187878 Ry
     Harris-Foulkes estimate   =    -329.26187833 Ry
     estimated scf accuracy    <       0.00000030 Ry

     total magnetization       =     2.01 Bohr mag/cell
     absolute magnetization    =     2.14 Bohr mag/cell

     iteration # 14     ecut=    50.00 Ry     beta=0.70
     Davidson diagonalization with overlap
     ethr =  2.47E-10,  avg # of iterations =  2.6

     negative rho (up, down):  0.000E+00 1.277E-04

     Magnetic moment per site:
     atom:    1    charge:   14.4112    magn:    2.0703    constr:    0.0000

     total cpu time spent up to now is       28.4 secs

     total energy              =    -329.26187989 Ry
     Harris-Foulkes estimate   =    -329.26187975 Ry
     estimated scf accuracy    <       0.00000012 Ry

     total magnetization       =     2.01 Bohr mag/cell
     absolute magnetization    =     2.15 Bohr mag/cell

     iteration # 15     ecut=    50.00 Ry     beta=0.70
     Davidson diagonalization with overlap
     ethr =  2.47E-10,  avg # of iterations =  2.0

     negative rho (up, down):  0.000E+00 1.278E-04

     Magnetic moment per site:
     atom:    1    charge:   14.4112    magn:    2.0703    constr:    0.0000

     total cpu time spent up to now is       30.4 secs

     End of self-consistent calculation

 ------ SPIN UP ------------


          k = 0.0000 0.0000 0.0000 (   459 PWs)   bands (ev):

   -70.2063 -36.0196 -36.0196 -36.0196   9.4379  15.6903  15.6903  15.6903
    16.6262  16.6262  42.5322  42.5322

          k = 0.0000-0.1250 0.1250 (   471 PWs)   bands (ev):

   -70.1962 -36.0780 -36.0391 -36.0199  10.0668  15.5235  15.6500  16.0254
    16.5040  16.6411  39.1066  41.4310

          k = 0.0000-0.2500 0.2500 (   465 PWs)   bands (ev):

   -70.1704 -36.2145 -36.0849 -36.0196  11.6896  15.1356  15.4691  16.5523
    16.6932  16.8978  33.4067  38.8013

          k = 0.0000-0.3750 0.3750 (   474 PWs)   bands (ev):

   -70.1453 -36.3505 -36.1312 -36.0202  12.8950  14.7668  16.3514  16.7694
    16.9347  17.8866  27.9747  36.7217

          k = 0.0000 0.5000-0.5000 (   476 PWs)   bands (ev):

   -70.1348 -36.4055 -36.1499 -36.0204  12.9998  14.6192  16.7772  16.8086
    18.3421  18.3429  25.0139  35.9650

          k =-0.1250-0.1250 0.2500 (   463 PWs)   bands (ev):

   -70.1778 -36.1715 -36.0606 -36.0330  11.2243  15.3345  15.3383  16.4006
    16.7185  16.7465  36.1102  37.2909

          k =-0.1250-0.2500 0.3750 (   469 PWs)   bands (ev):

   -70.1525 -36.2930 -36.1160 -36.0392  12.8570  14.9113  15.2918  16.5635
    16.8802  17.9572  30.8480  34.6599

          k =-0.1250 0.6250-0.5000 (   469 PWs)   bands (ev):

   -70.1345 -36.3752 -36.1605 -36.0399  13.3086  14.6970  16.0291  16.7482
    17.3242  19.6873  26.0755  33.3869

          k =-0.2500 0.7500-0.5000 (   468 PWs)   bands (ev):

   -70.1344 -36.3350 -36.1817 -36.0598  13.8967  14.5689  15.2515  16.7013
    17.0903  20.1589  28.7260  29.5734

          k =-0.2500 0.6250-0.3750 (   471 PWs)   bands (ev):

   -70.1271 -36.3338 -36.2312 -36.0652  14.0217  14.6693  15.1932  16.8620
    17.2109  22.6952  25.3074  28.6079

          k = 0.0000 0.0000 0.2500 (   466 PWs)   bands (ev):

   -70.1859 -36.0914 -36.0583 -36.0583  10.6652  15.7148  15.7148  16.0268
    16.0917  16.8368  38.3615  40.3343

          k = 0.0000-0.1250 0.3750 (   464 PWs)   bands (ev):

   -70.1612 -36.2102 -36.1057 -36.0654  12.1787  15.3031  15.4642  16.1913
    16.8216  17.0945  33.8425  37.6552

          k = 0.0000-0.2500 0.5000 (   464 PWs)   bands (ev):

   -70.1367 -36.3376 -36.1520 -36.0622  13.2639  15.1409  15.2069  16.5591
    17.8313  18.2606  28.3500  35.8133

          k = 0.0000 0.6250-0.3750 (   468 PWs)   bands (ev):

   -70.1266 -36.3901 -36.1718 -36.0608  13.3180  15.0089  15.4846  16.5517
    18.3026  20.1303  25.1091  34.9635

          k =-0.1250-0.1250 0.5000 (   468 PWs)   bands (ev):

   -70.1378 -36.2908 -36.1631 -36.0897  13.4197  14.6650  15.5863  16.3556
    17.2899  18.3805  31.4133  32.1178

          k =-0.1250 0.7500-0.3750 (   465 PWs)   bands (ev):

   -70.1210 -36.3503 -36.2150 -36.0910  13.7940  14.6120  15.2757  16.6846
    17.7928  21.1198  26.6196  30.4979

          k =-0.2500 0.2500 0.2500 (   471 PWs)   bands (ev):

   -70.1591 -36.2723 -36.0666 -36.0666  12.6991  14.9031  14.9031  16.6760
    16.6760  18.0105  33.7348  33.7348

          k =-0.2500 0.7500-0.2500 (   475 PWs)   bands (ev):

   -70.1149 -36.3021 -36.3021 -36.0970  14.2796  14.2796  14.9434  17.3572
    17.3572  24.7923  24.7923  27.1234

          k = 0.6250-0.6250 0.2500 (   472 PWs)   bands (ev):

   -70.1401 -36.3334 -36.1382 -36.0717  13.8329  14.6297  15.1797  16.7723
    16.7969  19.9017  28.6891  32.1772

          k = 0.5000-0.5000 0.2500 (   472 PWs)   bands (ev):

   -70.1322 -36.3468 -36.1795 -36.0741  13.7935  14.5403  15.9360  16.8256
    16.8376  21.8970  25.2789  31.6266

          k = 0.5000-0.6250 0.3750 (   475 PWs)   bands (ev):

   -70.1314 -36.3020 -36.2010 -36.1087  14.3229  14.6590  15.1108  16.8443
    16.8693  22.8545  26.9832  28.0660

          k = 0.0000 0.0000 0.5000 (   458 PWs)   bands (ev):

   -70.1388 -36.2190 -36.1546 -36.1546  13.1948  14.7905  16.1244  16.1244
    16.8576  17.9155  34.7357  34.7357

          k = 0.0000-0.1250 0.6250 (   461 PWs)   bands (ev):

   -70.1167 -36.3077 -36.2037 -36.1638  13.7078  14.1750  16.1386  16.5249
    17.7069  20.0468  29.4485  32.4275

          k = 0.0000 0.7500-0.2500 (   462 PWs)   bands (ev):

   -70.1075 -36.3524 -36.2242 -36.1591  13.6215  14.1186  16.0670  16.6228
    18.2079  22.8571  25.5547  31.5059

          k =-0.1250 0.8750-0.2500 (   466 PWs)   bands (ev):

   -70.1022 -36.3219 -36.2696 -36.1788  13.7012  13.7152  16.1878  17.2815
    17.8981  23.2835  27.6219  28.3600

          k = 0.5000-0.5000 0.5000 (   484 PWs)   bands (ev):

   -70.1303 -36.2093 -36.2093 -36.2093  14.7489  14.7489  14.7489  16.8428
    16.8428  26.3758  26.3758  26.3758

          k = 0.0000 0.0000 0.7500 (   466 PWs)   bands (ev):

   -70.0972 -36.2875 -36.2557 -36.2557  13.4444  13.5100  17.2262  17.2262
    17.7139  22.5460  29.8320  29.8320

          k = 0.0000 0.8750-0.1250 (   474 PWs)   bands (ev):

   -70.0892 -36.3150 -36.2774 -36.2582  13.2409  13.2746  17.3879  17.5606
    18.1142  25.7601  26.6328  28.7647

          k = 0.0000 0.0000-1.0000 (   466 PWs)   bands (ev):

   -70.0813 -36.2982 -36.2982 -36.2982  12.9923  12.9923  18.0756  18.0756
    18.0756  27.6521  27.6521  27.6521

 ------ SPIN DOWN ----------


          k = 0.0000 0.0000 0.0000 (   459 PWs)   bands (ev):

   -67.7471 -33.6030 -33.6030 -33.6030   9.5615  17.2346  17.2346  17.2346
    19.5783  19.5783  42.2502  42.2502

          k = 0.0000-0.1250 0.1250 (   471 PWs)   bands (ev):

   -67.7362 -33.6673 -33.6242 -33.6032  10.1954  17.0395  17.1898  17.5952
    19.3798  19.5950  39.2799  41.3728

          k = 0.0000-0.2500 0.2500 (   465 PWs)   bands (ev):

   -67.7084 -33.8185 -33.6743 -33.6030  11.8972  16.5899  16.9958  18.5413
    19.1809  19.6619  33.9623  38.8890

          k = 0.0000-0.3750 0.3750 (   474 PWs)   bands (ev):

   -67.6809 -33.9685 -33.7249 -33.6036  13.6727  16.1668  17.3388  19.2617
    19.6300  19.7698  28.8418  36.7741

          k = 0.0000 0.5000-0.5000 (   476 PWs)   bands (ev):

   -67.6694 -34.0294 -33.7453 -33.6038  14.1517  15.9985  18.4011  19.3301
    19.8278  20.1394  26.2151  35.9868

          k =-0.1250-0.1250 0.2500 (   463 PWs)   bands (ev):

   -67.7164 -33.7709 -33.6479 -33.6178  11.3812  16.8108  16.8985  18.3255
    19.1264  19.6927  36.4977  37.6207

          k =-0.1250-0.2500 0.3750 (   469 PWs)   bands (ev):

   -67.6889 -33.9051 -33.7086 -33.6245  13.2777  16.3689  16.6818  19.0843
    19.4739  19.9009  31.5181  35.0607

          k =-0.1250 0.6250-0.5000 (   469 PWs)   bands (ev):

   -67.6692 -33.9957 -33.7574 -33.6254  14.4061  16.0730  17.2718  19.2569
    19.8232  21.0390  27.0843  33.7772

          k =-0.2500 0.7500-0.5000 (   468 PWs)   bands (ev):

   -67.6692 -33.9511 -33.7814 -33.6469  14.8035  16.0919  16.4620  19.1652
    19.7352  21.5915  29.4962  30.1691

          k =-0.2500 0.6250-0.3750 (   471 PWs)   bands (ev):

   -67.6612 -33.9498 -33.8360 -33.6527  15.2597  16.0543  16.5480  19.3430
    19.6702  23.7123  26.3107  29.2487

          k = 0.0000 0.0000 0.2500 (   466 PWs)   bands (ev):

   -67.7250 -33.6828 -33.6453 -33.6453  10.8069  17.2279  17.2279  17.6005
    18.8627  19.8258  38.5878  40.5536

          k = 0.0000-0.1250 0.3750 (   464 PWs)   bands (ev):

   -67.6984 -33.8138 -33.6972 -33.6534  12.4372  16.9354  17.0884  18.4552
    18.4568  20.0092  34.4124  37.9722

          k = 0.0000-0.2500 0.5000 (   464 PWs)   bands (ev):

   -67.6717 -33.9542 -33.7480 -33.6500  14.1408  16.5649  16.8954  18.7611
    19.5679  20.4547  29.1885  36.2700

          k = 0.0000 0.6250-0.3750 (   468 PWs)   bands (ev):

   -67.6608 -34.0120 -33.7696 -33.6484  14.6042  16.4143  17.1890  18.8799
    20.0962  21.4593  26.2604  35.4020

          k =-0.1250-0.1250 0.5000 (   468 PWs)   bands (ev):

   -67.6729 -33.9024 -33.7604 -33.6800  14.0760  16.5702  17.0259  18.3501
    19.2614  20.5483  32.1481  32.6397

          k =-0.1250 0.7500-0.3750 (   465 PWs)   bands (ev):

   -67.6547 -33.9678 -33.8176 -33.6814  15.1557  16.3091  16.7695  18.7384
    19.7258  22.4747  27.5418  31.0979

          k =-0.2500 0.2500 0.2500 (   471 PWs)   bands (ev):

   -67.6960 -33.8820 -33.6545 -33.6545  12.9327  16.3562  16.3562  19.5168
    19.5168  19.6002  34.1765  34.1765

          k =-0.2500 0.7500-0.2500 (   475 PWs)   bands (ev):

   -67.6480 -33.9140 -33.9140 -33.6877  16.0167  16.0167  16.2430  19.3147
    19.3147  25.7994  25.7994  27.8414

          k = 0.6250-0.6250 0.2500 (   472 PWs)   bands (ev):

   -67.6753 -33.9494 -33.7334 -33.6604  14.6168  15.9687  16.2800  19.5215
    19.7674  21.2686  29.3995  32.6007

          k = 0.5000-0.5000 0.2500 (   472 PWs)   bands (ev):

   -67.6668 -33.9645 -33.7788 -33.6630  14.9535  15.8338  16.8556  19.5653
    19.8514  22.8210  26.3088  32.0328

          k = 0.5000-0.6250 0.3750 (   475 PWs)   bands (ev):

   -67.6658 -33.9147 -33.8030 -33.7010  15.4729  15.9014  16.1386  19.6979
    19.8204  23.8377  27.7092  28.7177

          k = 0.0000 0.0000 0.5000 (   458 PWs)   bands (ev):

   -67.6742 -33.8241 -33.7511 -33.7511  13.7713  17.1652  17.6177  17.6177
    18.5079  20.4415  35.2049  35.2049

          k = 0.0000-0.1250 0.6250 (   461 PWs)   bands (ev):

   -67.6501 -33.9208 -33.8050 -33.7616  15.0002  16.2353  17.6357  18.2288
    19.4304  21.6675  30.1634  32.8716

          k = 0.0000 0.7500-0.2500 (   462 PWs)   bands (ev):

   -67.6402 -33.9695 -33.8275 -33.7567  15.3721  15.9436  17.5570  18.3932
    19.9925  23.9103  26.5073  31.9135

          k =-0.1250 0.8750-0.2500 (   466 PWs)   bands (ev):

   -67.6343 -33.9357 -33.8776 -33.7779  15.4780  15.6686  17.6670  18.9727
    19.6702  24.3146  28.3970  28.9157

          k = 0.5000-0.5000 0.5000 (   484 PWs)   bands (ev):

   -67.6646 -33.8122 -33.8122 -33.8122  15.8675  15.8675  15.8675  19.8750
    19.8750  27.0673  27.0673  27.0673

          k = 0.0000 0.0000 0.7500 (   466 PWs)   bands (ev):

   -67.6287 -33.8980 -33.8622 -33.8622  15.1808  15.5616  18.8262  18.8262
    19.4488  23.5473  30.2062  30.2062

          k = 0.0000 0.8750-0.1250 (   474 PWs)   bands (ev):

   -67.6202 -33.9275 -33.8859 -33.8651  15.1825  15.1928  19.0339  19.2200
    19.8900  26.3985  27.1789  29.0703

          k = 0.0000 0.0000-1.0000 (   466 PWs)   bands (ev):

   -67.6113 -33.9090 -33.9090 -33.9090  14.9309  14.9309  19.8478  19.8478
    19.8478  27.8501  27.8501  27.8501

     the Fermi energy is    17.8471 ev

!    total energy              =    -329.26188009 Ry
     Harris-Foulkes estimate   =    -329.26188007 Ry
     estimated scf accuracy    <          7.8E-11 Ry

     total all-electron energy =     -2545.558416 Ry

     The total energy is the sum of the following terms:

     one-electron contribution =    -111.50106683 Ry
     hartree contribution      =      66.03856429 Ry
     xc contribution           =     -34.80263797 Ry
     ewald contribution        =    -172.84670930 Ry
     one-center paw contrib.   =     -76.15071138 Ry
     smearing contrib. (-TS)   =       0.00068110 Ry

     total magnetization       =     2.01 Bohr mag/cell
     absolute magnetization    =     2.15 Bohr mag/cell

     convergence has been achieved in  15 iterations

     Forces acting on atoms (Ry/au):


     negative rho (up, down):  0.000E+00 1.278E-04
     atom    1 type  1   force =     0.00000000    0.00000000    0.00000000

     Total force =     0.000000     Total SCF correction =     0.000000


     entering subroutine stress ...


     negative rho (up, down):  0.000E+00 1.278E-04
          total   stress  (Ry/bohr**3)                   (kbar)     P= -138.43
  -0.00094106  -0.00000000   0.00000000       -138.43     -0.00      0.00
  -0.00000000  -0.00094106   0.00000000         -0.00   -138.43      0.00
   0.00000000   0.00000000  -0.00094106          0.00      0.00   -138.43


     Writing output data file Fe_bcc.save

     init_run     :      1.57s CPU      1.65s WALL (       1 calls)
     electrons    :     27.70s CPU     28.33s WALL (       1 calls)
     forces       :      0.12s CPU      0.12s WALL (       1 calls)
     stress       :      0.42s CPU      0.43s WALL (       1 calls)

     Called by init_run:
     wfcinit      :      0.47s CPU      0.49s WALL (       1 calls)
     potinit      :      0.56s CPU      0.59s WALL (       1 calls)

     Called by electrons:
     c_bands      :     16.70s CPU     16.94s WALL (      15 calls)
     sum_band     :      3.08s CPU      3.20s WALL (      15 calls)
     v_of_rho     :      0.38s CPU      0.40s WALL (      16 calls)
     newd         :      0.25s CPU      0.27s WALL (      16 calls)
     mix_rho      :      0.05s CPU      0.05s WALL (      15 calls)

     Called by c_bands:
     init_us_2    :      0.34s CPU      0.35s WALL (    1914 calls)
     cegterg      :     16.04s CPU     16.26s WALL (     870 calls)

     Called by *egterg:
     h_psi        :     13.56s CPU     13.90s WALL (    2927 calls)
     s_psi        :      0.37s CPU      0.30s WALL (    2927 calls)
     g_psi        :      0.08s CPU      0.08s WALL (    1999 calls)
     cdiaghg      :      0.92s CPU      0.94s WALL (    2869 calls)

     Called by h_psi:
     add_vuspsi   :      0.39s CPU      0.33s WALL (    2927 calls)

     General routines
     calbec       :      0.40s CPU      0.42s WALL (    3913 calls)
     fft          :      0.20s CPU      0.22s WALL (     530 calls)
     ffts         :      0.02s CPU      0.02s WALL (      62 calls)
     fftw         :     13.77s CPU     14.16s WALL (   64138 calls)
     interpolate  :      0.05s CPU      0.05s WALL (      62 calls)
     davcio       :      0.00s CPU      0.00s WALL (      58 calls)


     PAW routines
     PAW_pot      :      7.78s CPU      8.02s WALL (      16 calls)
     PAW_symme    :      0.02s CPU      0.02s WALL (      31 calls)

     PWSCF        :    30.32s CPU        31.12s WALL


   This run was terminated on:  10:17:29  11May2015            

=------------------------------------------------------------------------------=
   JOB DONE.
=------------------------------------------------------------------------------=
