
     Program PWSCF v.5.1.2 starts on 11May2015 at 10:24:19 

     This program is part of the open-source Quantum ESPRESSO suite
     for quantum simulation of materials; please cite
         "P. Giannozzi et al., J. Phys.:Condens. Matter 21 395502 (2009);
          URL http://www.quantum-espresso.org", 
     in publications or presentations arising from this work. More details at
     http://www.quantum-espresso.org/quote

     Serial version
     Reading input from Fe_bcc_5.43_9.pw.in

     Current dimensions of program PWSCF are:
     Max number of different atomic species (ntypx) = 10
     Max number of k-points (npk) =  40000
     Max angular momentum in pseudopotentials (lmaxx) =  3
               file Fe.pbe-spn-kjpaw_psl.0.2.1.UPF: wavefunction(s)  3D renormalized

     G-vector sticks info
     --------------------
     sticks:   dense  smooth     PW     G-vecs:    dense   smooth      PW
     Sum         411     333    103                 5425     3805     683

     Generating pointlists ...
     new r_m :   0.3572 (alat units)  1.9398 (a.u.) for type    1


     bravais-lattice index     =            3
     lattice parameter (alat)  =       5.4300  a.u.
     unit-cell volume          =      80.0515 (a.u.)^3
     number of atoms/cell      =            1
     number of atomic types    =            1
     number of electrons       =        16.00
     number of Kohn-Sham states=           12
     kinetic-energy cutoff     =      50.0000  Ry
     charge density cutoff     =     250.0000  Ry
     convergence threshold     =      1.0E-08
     mixing beta               =       0.7000
     number of iterations used =            8  plain     mixing
     Exchange-correlation      =  SLA  PW   PBX  PBC ( 1  4  3  4 0 0)

     celldm(1)=   5.430000  celldm(2)=   0.000000  celldm(3)=   0.000000
     celldm(4)=   0.000000  celldm(5)=   0.000000  celldm(6)=   0.000000

     crystal axes: (cart. coord. in units of alat)
               a(1) = (   0.500000   0.500000   0.500000 )  
               a(2) = (  -0.500000   0.500000   0.500000 )  
               a(3) = (  -0.500000  -0.500000   0.500000 )  

     reciprocal axes: (cart. coord. in units 2 pi/alat)
               b(1) = (  1.000000  0.000000  1.000000 )  
               b(2) = ( -1.000000  1.000000  0.000000 )  
               b(3) = (  0.000000 -1.000000  1.000000 )  


     PseudoPot. # 1 for Fe read from file:
     ./Fe.pbe-spn-kjpaw_psl.0.2.1.UPF
     MD5 check sum: a0a08122d52b112de96d1da1d7dd020f
     Pseudo is Projector augmented-wave + core cor, Zval = 16.0
     Generated using "atomic" code by A. Dal Corso  v.5.0.2 svn rev. 9415
     Shape of augmentation charge: PSQ
     Using radial grid of 1191 points,  6 beta functions with: 
                l(1) =   0
                l(2) =   0
                l(3) =   1
                l(4) =   1
                l(5) =   2
                l(6) =   2
     Q(r) pseudized with 0 coefficients 


     atomic species   valence    mass     pseudopotential
        Fe            16.00    55.85000     Fe( 1.00)

     Starting magnetic structure 
     atomic species   magnetization
        Fe           0.700

     48 Sym. Ops., with inversion, found



   Cartesian axes

     site n.     atom                  positions (alat units)
         1           Fe  tau(   1) = (   0.0000000   0.0000000   0.0000000  )

     number of k points=    70  Marzari-Vanderbilt smearing, width (Ry)=  0.0250
                       cart. coord. in units 2pi/alat
        k(    1) = (   0.0000000   0.0000000   0.0000000), wk =   0.0013717
        k(    2) = (   0.0000000  -0.1111111   0.1111111), wk =   0.0164609
        k(    3) = (   0.0000000  -0.2222222   0.2222222), wk =   0.0164609
        k(    4) = (   0.0000000  -0.3333333   0.3333333), wk =   0.0164609
        k(    5) = (   0.0000000  -0.4444444   0.4444444), wk =   0.0164609
        k(    6) = (  -0.1111111  -0.1111111   0.2222222), wk =   0.0329218
        k(    7) = (  -0.1111111  -0.2222222   0.3333333), wk =   0.0658436
        k(    8) = (  -0.1111111  -0.3333333   0.4444444), wk =   0.0658436
        k(    9) = (  -0.1111111   0.5555556  -0.4444444), wk =   0.0329218
        k(   10) = (  -0.2222222  -0.2222222   0.4444444), wk =   0.0329218
        k(   11) = (  -0.2222222   0.6666667  -0.4444444), wk =   0.0658436
        k(   12) = (  -0.3333333   0.6666667  -0.3333333), wk =   0.0109739
        k(   13) = (   0.0000000   0.0000000   0.2222222), wk =   0.0082305
        k(   14) = (   0.0000000  -0.1111111   0.3333333), wk =   0.0329218
        k(   15) = (   0.0000000  -0.2222222   0.4444444), wk =   0.0329218
        k(   16) = (   0.0000000  -0.3333333   0.5555556), wk =   0.0329218
        k(   17) = (  -0.1111111  -0.1111111   0.4444444), wk =   0.0329218
        k(   18) = (  -0.1111111  -0.2222222   0.5555556), wk =   0.0658436
        k(   19) = (  -0.1111111   0.6666667  -0.3333333), wk =   0.0329218
        k(   20) = (  -0.2222222   0.2222222   0.2222222), wk =   0.0109739
        k(   21) = (  -0.2222222   0.7777778  -0.3333333), wk =   0.0329218
        k(   22) = (  -0.3333333   0.3333333   0.2222222), wk =   0.0329218
        k(   23) = (   0.5555556  -0.5555556   0.2222222), wk =   0.0329218
        k(   24) = (   0.5555556  -0.6666667   0.3333333), wk =   0.0329218
        k(   25) = (   0.4444444  -0.5555556   0.3333333), wk =   0.0329218
        k(   26) = (   0.0000000   0.0000000   0.4444444), wk =   0.0082305
        k(   27) = (   0.0000000  -0.1111111   0.5555556), wk =   0.0329218
        k(   28) = (   0.0000000  -0.2222222   0.6666667), wk =   0.0329218
        k(   29) = (  -0.1111111  -0.1111111   0.6666667), wk =   0.0329218
        k(   30) = (  -0.1111111   0.7777778  -0.2222222), wk =   0.0329218
        k(   31) = (   0.5555556  -0.5555556   0.4444444), wk =   0.0109739
        k(   32) = (   0.0000000   0.0000000   0.6666667), wk =   0.0082305
        k(   33) = (   0.0000000  -0.1111111   0.7777778), wk =   0.0329218
        k(   34) = (  -0.1111111   0.8888889  -0.1111111), wk =   0.0109739
        k(   35) = (   0.0000000   0.0000000   0.8888889), wk =   0.0082305
        k(   36) = (   0.0000000   0.0000000   0.0000000), wk =   0.0013717
        k(   37) = (   0.0000000  -0.1111111   0.1111111), wk =   0.0164609
        k(   38) = (   0.0000000  -0.2222222   0.2222222), wk =   0.0164609
        k(   39) = (   0.0000000  -0.3333333   0.3333333), wk =   0.0164609
        k(   40) = (   0.0000000  -0.4444444   0.4444444), wk =   0.0164609
        k(   41) = (  -0.1111111  -0.1111111   0.2222222), wk =   0.0329218
        k(   42) = (  -0.1111111  -0.2222222   0.3333333), wk =   0.0658436
        k(   43) = (  -0.1111111  -0.3333333   0.4444444), wk =   0.0658436
        k(   44) = (  -0.1111111   0.5555556  -0.4444444), wk =   0.0329218
        k(   45) = (  -0.2222222  -0.2222222   0.4444444), wk =   0.0329218
        k(   46) = (  -0.2222222   0.6666667  -0.4444444), wk =   0.0658436
        k(   47) = (  -0.3333333   0.6666667  -0.3333333), wk =   0.0109739
        k(   48) = (   0.0000000   0.0000000   0.2222222), wk =   0.0082305
        k(   49) = (   0.0000000  -0.1111111   0.3333333), wk =   0.0329218
        k(   50) = (   0.0000000  -0.2222222   0.4444444), wk =   0.0329218
        k(   51) = (   0.0000000  -0.3333333   0.5555556), wk =   0.0329218
        k(   52) = (  -0.1111111  -0.1111111   0.4444444), wk =   0.0329218
        k(   53) = (  -0.1111111  -0.2222222   0.5555556), wk =   0.0658436
        k(   54) = (  -0.1111111   0.6666667  -0.3333333), wk =   0.0329218
        k(   55) = (  -0.2222222   0.2222222   0.2222222), wk =   0.0109739
        k(   56) = (  -0.2222222   0.7777778  -0.3333333), wk =   0.0329218
        k(   57) = (  -0.3333333   0.3333333   0.2222222), wk =   0.0329218
        k(   58) = (   0.5555556  -0.5555556   0.2222222), wk =   0.0329218
        k(   59) = (   0.5555556  -0.6666667   0.3333333), wk =   0.0329218
        k(   60) = (   0.4444444  -0.5555556   0.3333333), wk =   0.0329218
        k(   61) = (   0.0000000   0.0000000   0.4444444), wk =   0.0082305
        k(   62) = (   0.0000000  -0.1111111   0.5555556), wk =   0.0329218
        k(   63) = (   0.0000000  -0.2222222   0.6666667), wk =   0.0329218
        k(   64) = (  -0.1111111  -0.1111111   0.6666667), wk =   0.0329218
        k(   65) = (  -0.1111111   0.7777778  -0.2222222), wk =   0.0329218
        k(   66) = (   0.5555556  -0.5555556   0.4444444), wk =   0.0109739
        k(   67) = (   0.0000000   0.0000000   0.6666667), wk =   0.0082305
        k(   68) = (   0.0000000  -0.1111111   0.7777778), wk =   0.0329218
        k(   69) = (  -0.1111111   0.8888889  -0.1111111), wk =   0.0109739
        k(   70) = (   0.0000000   0.0000000   0.8888889), wk =   0.0082305

     Dense  grid:     5425 G-vectors     FFT dimensions: (  24,  24,  24)

     Smooth grid:     3805 G-vectors     FFT dimensions: (  24,  24,  24)

     Largest allocated arrays     est. size (Mb)     dimensions
        Kohn-Sham Wavefunctions         0.09 Mb     (     486,   12)
        NL pseudopotentials             0.13 Mb     (     486,   18)
        Each V/rho on FFT grid          0.42 Mb     (   13824,   2)
        Each G-vector array             0.04 Mb     (    5425)
        G-vector shells                 0.00 Mb     (      88)
     Largest temporary arrays     est. size (Mb)     dimensions
        Auxiliary wavefunctions         0.36 Mb     (     486,   48)
        Each subspace H/S matrix        0.04 Mb     (      48,   48)
        Each <psi_i|beta_j> matrix      0.00 Mb     (      18,   12)
        Arrays for rho mixing           1.69 Mb     (   13824,    8)

     Check: negative/imaginary core charge=   -0.000432    0.000000

     Initial potential from superposition of free atoms

     starting charge   15.99956, renormalised to   16.00000
     Starting wfc are   13 randomized atomic wfcs

     total cpu time spent up to now is        2.0 secs

     Self-consistent Calculation

     iteration #  1     ecut=    50.00 Ry     beta=0.70
     Davidson diagonalization with overlap
     ethr =  1.00E-02,  avg # of iterations =  3.2

     negative rho (up, down):  0.000E+00 3.479E-04

     Magnetic moment per site:
     atom:    1    charge:   14.2976    magn:    5.6969    constr:    0.0000

     total cpu time spent up to now is        4.4 secs

     total energy              =    -328.99174419 Ry
     Harris-Foulkes estimate   =    -328.06433773 Ry
     estimated scf accuracy    <       1.51032721 Ry

     total magnetization       =     3.84 Bohr mag/cell
     absolute magnetization    =     3.88 Bohr mag/cell

     iteration #  2     ecut=    50.00 Ry     beta=0.70
     Davidson diagonalization with overlap
     ethr =  9.44E-03,  avg # of iterations =  1.2

     negative rho (up, down):  0.000E+00 3.747E-04

     Magnetic moment per site:
     atom:    1    charge:   14.5249    magn:    3.5112    constr:    0.0000

     total cpu time spent up to now is        6.2 secs

     total energy              =    -329.16177013 Ry
     Harris-Foulkes estimate   =    -329.10421669 Ry
     estimated scf accuracy    <       0.34429501 Ry

     total magnetization       =     3.08 Bohr mag/cell
     absolute magnetization    =     3.21 Bohr mag/cell

     iteration #  3     ecut=    50.00 Ry     beta=0.70
     Davidson diagonalization with overlap
     ethr =  2.15E-03,  avg # of iterations =  2.0

     negative rho (up, down):  0.000E+00 3.829E-04

     Magnetic moment per site:
     atom:    1    charge:   14.4094    magn:    2.5226    constr:    0.0000

     total cpu time spent up to now is        8.3 secs

     total energy              =    -329.18208401 Ry
     Harris-Foulkes estimate   =    -329.34467156 Ry
     estimated scf accuracy    <       0.46967199 Ry

     total magnetization       =     2.54 Bohr mag/cell
     absolute magnetization    =     2.68 Bohr mag/cell

     iteration #  4     ecut=    50.00 Ry     beta=0.70
     Davidson diagonalization with overlap
     ethr =  2.15E-03,  avg # of iterations =  2.0

     negative rho (up, down):  0.000E+00 2.446E-04

     Magnetic moment per site:
     atom:    1    charge:   14.4420    magn:    2.3828    constr:    0.0000

     total cpu time spent up to now is       10.2 secs

     total energy              =    -329.25814987 Ry
     Harris-Foulkes estimate   =    -329.25739632 Ry
     estimated scf accuracy    <       0.00152247 Ry

     total magnetization       =     2.39 Bohr mag/cell
     absolute magnetization    =     2.55 Bohr mag/cell

     iteration #  5     ecut=    50.00 Ry     beta=0.70
     Davidson diagonalization with overlap
     ethr =  9.52E-06,  avg # of iterations =  3.5

     negative rho (up, down):  0.000E+00 2.397E-04

     Magnetic moment per site:
     atom:    1    charge:   14.4383    magn:    2.3540    constr:    0.0000

     total cpu time spent up to now is       12.6 secs

     total energy              =    -329.26103551 Ry
     Harris-Foulkes estimate   =    -329.26077638 Ry
     estimated scf accuracy    <       0.00049529 Ry

     total magnetization       =     2.27 Bohr mag/cell
     absolute magnetization    =     2.41 Bohr mag/cell

     iteration #  6     ecut=    50.00 Ry     beta=0.70
     Davidson diagonalization with overlap
     ethr =  3.10E-06,  avg # of iterations =  1.0

     negative rho (up, down):  0.000E+00 1.202E-04

     Magnetic moment per site:
     atom:    1    charge:   14.4270    magn:    2.0650    constr:    0.0000

     total cpu time spent up to now is       14.3 secs

     total energy              =    -329.25889017 Ry
     Harris-Foulkes estimate   =    -329.26109377 Ry
     estimated scf accuracy    <       0.00036466 Ry

     total magnetization       =     2.24 Bohr mag/cell
     absolute magnetization    =     2.38 Bohr mag/cell

     iteration #  7     ecut=    50.00 Ry     beta=0.70
     Davidson diagonalization with overlap
     ethr =  2.28E-06,  avg # of iterations =  2.5

     negative rho (up, down):  0.000E+00 1.817E-04

     Magnetic moment per site:
     atom:    1    charge:   14.4307    magn:    2.2101    constr:    0.0000

     total cpu time spent up to now is       16.8 secs

     total energy              =    -329.26146120 Ry
     Harris-Foulkes estimate   =    -329.26082499 Ry
     estimated scf accuracy    <       0.00031645 Ry

     total magnetization       =     2.08 Bohr mag/cell
     absolute magnetization    =     2.19 Bohr mag/cell

     iteration #  8     ecut=    50.00 Ry     beta=0.70
     Davidson diagonalization with overlap
     ethr =  1.98E-06,  avg # of iterations =  2.0

     negative rho (up, down):  0.000E+00 1.742E-04

     Magnetic moment per site:
     atom:    1    charge:   14.4318    magn:    2.1873    constr:    0.0000

     total cpu time spent up to now is       18.7 secs

     total energy              =    -329.26174712 Ry
     Harris-Foulkes estimate   =    -329.26172405 Ry
     estimated scf accuracy    <       0.00002878 Ry

     total magnetization       =     2.14 Bohr mag/cell
     absolute magnetization    =     2.26 Bohr mag/cell

     iteration #  9     ecut=    50.00 Ry     beta=0.70
     Davidson diagonalization with overlap
     ethr =  1.80E-07,  avg # of iterations =  2.4

     negative rho (up, down):  0.000E+00 1.732E-04

     Magnetic moment per site:
     atom:    1    charge:   14.4317    magn:    2.1782    constr:    0.0000

     total cpu time spent up to now is       21.0 secs

     total energy              =    -329.26176705 Ry
     Harris-Foulkes estimate   =    -329.26176159 Ry
     estimated scf accuracy    <       0.00000698 Ry

     total magnetization       =     2.13 Bohr mag/cell
     absolute magnetization    =     2.25 Bohr mag/cell

     iteration # 10     ecut=    50.00 Ry     beta=0.70
     Davidson diagonalization with overlap
     ethr =  4.36E-08,  avg # of iterations =  1.5

     negative rho (up, down):  0.000E+00 1.686E-04

     Magnetic moment per site:
     atom:    1    charge:   14.4311    magn:    2.1652    constr:    0.0000

     total cpu time spent up to now is       22.8 secs

     total energy              =    -329.26176957 Ry
     Harris-Foulkes estimate   =    -329.26176970 Ry
     estimated scf accuracy    <       0.00000329 Ry

     total magnetization       =     2.12 Bohr mag/cell
     absolute magnetization    =     2.24 Bohr mag/cell

     iteration # 11     ecut=    50.00 Ry     beta=0.70
     Davidson diagonalization with overlap
     ethr =  2.06E-08,  avg # of iterations =  2.0

     negative rho (up, down):  0.000E+00 1.687E-04

     Magnetic moment per site:
     atom:    1    charge:   14.4311    magn:    2.1647    constr:    0.0000

     total cpu time spent up to now is       24.5 secs

     total energy              =    -329.26177435 Ry
     Harris-Foulkes estimate   =    -329.26177317 Ry
     estimated scf accuracy    <       0.00000005 Ry

     total magnetization       =     2.12 Bohr mag/cell
     absolute magnetization    =     2.23 Bohr mag/cell

     iteration # 12     ecut=    50.00 Ry     beta=0.70
     Davidson diagonalization with overlap
     ethr =  2.90E-10,  avg # of iterations =  3.0

     negative rho (up, down):  0.000E+00 1.681E-04

     Magnetic moment per site:
     atom:    1    charge:   14.4311    magn:    2.1627    constr:    0.0000

     total cpu time spent up to now is       26.7 secs

     total energy              =    -329.26177451 Ry
     Harris-Foulkes estimate   =    -329.26177443 Ry
     estimated scf accuracy    <       0.00000006 Ry

     total magnetization       =     2.12 Bohr mag/cell
     absolute magnetization    =     2.23 Bohr mag/cell

     iteration # 13     ecut=    50.00 Ry     beta=0.70
     Davidson diagonalization with overlap
     ethr =  2.90E-10,  avg # of iterations =  2.0

     negative rho (up, down):  0.000E+00 1.681E-04

     Magnetic moment per site:
     atom:    1    charge:   14.4311    magn:    2.1626    constr:    0.0000

     total cpu time spent up to now is       28.6 secs

     End of self-consistent calculation

 ------ SPIN UP ------------


          k = 0.0000 0.0000 0.0000 (   459 PWs)   bands (ev):

   -70.6837 -36.5125 -36.5125 -36.5125   9.0600  15.2165  15.2165  15.2165
    16.1464  16.1464  41.8045  41.8045

          k = 0.0000-0.1111 0.1111 (   471 PWs)   bands (ev):

   -70.6765 -36.5563 -36.5272 -36.5129   9.5522  15.0878  15.1918  15.4744
    16.0434  16.1575  38.9363  40.9344

          k = 0.0000-0.2222 0.2222 (   481 PWs)   bands (ev):

   -70.6575 -36.6632 -36.5641 -36.5140  10.8792  14.7716  15.0291  16.0273
    16.1682  16.1962  33.9429  38.6403

          k = 0.0000-0.3333 0.3333 (   474 PWs)   bands (ev):

   -70.6351 -36.7831 -36.6042 -36.5136  12.2663  14.4278  15.4012  16.2475
    16.2597  17.0461  28.9436  36.5779

          k = 0.0000-0.4444 0.4444 (   484 PWs)   bands (ev):

   -70.6210 -36.8611 -36.6310 -36.5141  12.6043  14.2117  16.2397  16.3129
    17.3679  17.6865  25.0274  35.4220

          k =-0.1111-0.1111 0.2222 (   479 PWs)   bands (ev):

   -70.6633 -36.6304 -36.5434 -36.5241  10.4726  14.9323  14.9676  15.9323
    16.0111  16.2294  36.2545  37.4144

          k =-0.1111-0.2222 0.3333 (   480 PWs)   bands (ev):

   -70.6425 -36.7344 -36.5869 -36.5285  11.9647  14.5793  14.8085  16.0145
    16.3332  16.9605  31.5976  34.9499

          k =-0.1111-0.3333 0.4444 (   479 PWs)   bands (ev):

   -70.6242 -36.8230 -36.6295 -36.5292  12.8028  14.3177  15.3872  16.2375
    16.5831  18.2357  26.9380  33.5084

          k =-0.1111 0.5556-0.4444 (   478 PWs)   bands (ev):

   -70.6170 -36.8568 -36.6468 -36.5293  12.8487  14.2230  15.8054  16.2578
    17.0041  19.4529  24.3723  32.9851

          k =-0.2222-0.2222 0.4444 (   478 PWs)   bands (ev):

   -70.6255 -36.7926 -36.6339 -36.5458  13.1466  14.2398  14.7625  16.1083
    16.5024  18.4822  29.5469  30.2769

          k =-0.2222 0.6667-0.4444 (   474 PWs)   bands (ev):

   -70.6143 -36.8157 -36.6846 -36.5515  13.4517  14.2210  14.9065  16.2903
    16.7013  20.7632  25.5896  28.9807

          k =-0.3333 0.6667-0.3333 (   481 PWs)   bands (ev):

   -70.6107 -36.7610 -36.7610 -36.5593  13.8833  14.3409  14.3409  16.5374
    16.5374  23.9030  23.9030  26.3230

          k = 0.0000 0.0000 0.2222 (   478 PWs)   bands (ev):

   -70.6694 -36.5672 -36.5425 -36.5425  10.0251  15.2299  15.2299  15.4764
    15.7352  16.3072  38.1509  40.0520

          k = 0.0000-0.1111 0.3333 (   474 PWs)   bands (ev):

   -70.6504 -36.6612 -36.5790 -36.5478  11.2935  14.9952  15.0154  15.6705
    16.1070  16.4745  34.2664  37.5904

          k = 0.0000-0.2222 0.4444 (   472 PWs)   bands (ev):

   -70.6288 -36.7756 -36.6202 -36.5457  12.5852  14.7065  14.7885  16.0475
    16.9965  17.0053  29.2754  35.9762

          k = 0.0000-0.3333 0.5556 (   478 PWs)   bands (ev):

   -70.6150 -36.8498 -36.6472 -36.5444  12.8693  14.5088  15.1368  16.1094
    17.6532  18.7707  25.1967  34.7396

          k =-0.1111-0.1111 0.4444 (   476 PWs)   bands (ev):

   -70.6309 -36.7363 -36.6220 -36.5685  12.5395  14.4768  15.0973  15.7481
    16.5975  17.1665  31.9818  32.7595

          k =-0.1111-0.2222 0.5556 (   478 PWs)   bands (ev):

   -70.6138 -36.8081 -36.6685 -36.5711  13.2554  14.2442  14.9144  16.0682
    17.0720  19.0326  27.5072  30.9655

          k =-0.1111 0.6667-0.3333 (   474 PWs)   bands (ev):

   -70.6068 -36.8363 -36.6873 -36.5703  13.2536  14.5290  14.6475  16.1440
    17.4007  21.0037  24.5583  30.4153

          k =-0.2222 0.2222 0.2222 (   477 PWs)   bands (ev):

   -70.6477 -36.7178 -36.5474 -36.5474  11.7103  14.5842  14.5842  16.1556
    16.1556  16.9939  34.0866  34.0866

          k =-0.2222 0.7778-0.3333 (   476 PWs)   bands (ev):

   -70.6037 -36.8016 -36.7361 -36.5782  13.8594  13.8594  14.5955  16.5029
    17.0020  22.0239  25.8755  27.1029

          k =-0.3333 0.3333 0.2222 (   484 PWs)   bands (ev):

   -70.6304 -36.7896 -36.6029 -36.5512  13.0581  14.2887  14.5603  16.2276
    16.2795  18.3800  29.5176  32.4866

          k = 0.5556-0.5556 0.2222 (   486 PWs)   bands (ev):

   -70.6190 -36.8241 -36.6502 -36.5541  13.2548  14.1337  15.4745  16.3219
    16.3290  20.2684  25.4029  31.6258

          k = 0.5556-0.6667 0.3333 (   485 PWs)   bands (ev):

   -70.6196 -36.7973 -36.6474 -36.5814  13.7981  14.1661  14.5889  16.3079
    16.3640  20.5094  27.8278  28.5737

          k = 0.4444-0.5556 0.3333 (   484 PWs)   bands (ev):

   -70.6153 -36.7769 -36.6935 -36.5881  13.7921  14.1824  14.8488  16.3655
    16.3914  22.8151  24.8555  27.8205

          k = 0.0000 0.0000 0.4444 (   478 PWs)   bands (ev):

   -70.6331 -36.6742 -36.6175 -36.6175  12.2981  14.6820  15.4914  15.4914
    16.1466  16.9551  34.8812  35.1579

          k = 0.0000-0.1111 0.5556 (   476 PWs)   bands (ev):

   -70.6133 -36.7575 -36.6601 -36.6266  13.1502  14.0794  15.4581  15.8680
    16.8867  18.1991  30.2169  32.9712

          k = 0.0000-0.2222 0.6667 (   474 PWs)   bands (ev):

   -70.6003 -36.8218 -36.6880 -36.6217  13.2587  13.9521  15.3327  16.0092
    17.5696  20.7585  25.8093  31.6579

          k =-0.1111-0.1111 0.6667 (   471 PWs)   bands (ev):

   -70.5976 -36.7905 -36.7140 -36.6419  13.4198  13.5778  15.5073  16.3651
    17.2243  20.5822  28.4263  28.9559

          k =-0.1111 0.7778-0.2222 (   475 PWs)   bands (ev):

   -70.5917 -36.8044 -36.7419 -36.6415  13.3282  13.5384  15.4121  16.6396
    17.4109  23.3194  25.1221  28.1342

          k = 0.5556-0.5556 0.4444 (   477 PWs)   bands (ev):

   -70.6152 -36.7462 -36.6566 -36.6566  14.1932  14.1932  14.4886  16.3521
    16.3521  23.3325  26.9340  26.9340

          k = 0.0000 0.0000 0.6667 (   482 PWs)   bands (ev):

   -70.5956 -36.7493 -36.7057 -36.7057  13.2205  13.4917  16.2927  16.2927
    16.9289  20.0236  30.5256  30.5256

          k = 0.0000-0.1111 0.7778 (   474 PWs)   bands (ev):

   -70.5837 -36.7904 -36.7350 -36.7093  13.0656  13.1394  16.4492  16.6609
    17.4767  22.9093  26.9585  29.0524

          k =-0.1111 0.8889-0.1111 (   478 PWs)   bands (ev):

   -70.5784 -36.7765 -36.7765 -36.7175  12.9332  12.9332  16.5505  17.3514
    17.3514  25.8437  25.8437  26.7778

          k = 0.0000 0.0000 0.8889 (   486 PWs)   bands (ev):

   -70.5733 -36.7721 -36.7657 -36.7657  12.7314  12.7329  17.3224  17.3224
    17.4503  25.3635  27.4161  27.4161

 ------ SPIN DOWN ----------


          k = 0.0000 0.0000 0.0000 (   459 PWs)   bands (ev):

   -68.1283 -34.0032 -34.0032 -34.0032   9.2247  16.8696  16.8696  16.8696
    19.1419  19.1419  41.5530  41.5530

          k = 0.0000-0.1111 0.1111 (   471 PWs)   bands (ev):

   -68.1205 -34.0515 -34.0192 -34.0036   9.7203  16.7175  16.8371  17.1486
    18.9828  19.1543  39.0924  40.8729

          k = 0.0000-0.2222 0.2222 (   481 PWs)   bands (ev):

   -68.0997 -34.1701 -34.0595 -34.0047  11.0893  16.3467  16.6755  17.9037
    18.7726  19.2033  34.4780  38.7582

          k = 0.0000-0.3333 0.3333 (   474 PWs)   bands (ev):

   -68.0754 -34.3031 -34.1036 -34.0043  12.8285  15.9475  16.6784  18.7949
    18.8719  19.2919  29.7518  36.6835

          k = 0.0000-0.4444 0.4444 (   484 PWs)   bands (ev):

   -68.0600 -34.3893 -34.1328 -34.0048  13.7487  15.6984  17.6223  18.8898
    19.3705  19.5900  26.1868  35.4879

          k =-0.1111-0.1111 0.2222 (   479 PWs)   bands (ev):

   -68.1060 -34.1336 -34.0370 -34.0157  10.6577  16.5299  16.6176  17.7168
    18.7576  19.2235  36.6229  37.7444

          k =-0.1111-0.2222 0.3333 (   480 PWs)   bands (ev):

   -68.0835 -34.2490 -34.0848 -34.0205  12.2861  16.1461  16.3790  18.6426
    18.6881  19.3469  32.2479  35.3620

          k =-0.1111-0.3333 0.4444 (   479 PWs)   bands (ev):

   -68.0635 -34.3471 -34.1316 -34.0215  13.7332  15.8138  16.6292  18.7819
    19.3290  19.9253  27.8637  33.9186

          k =-0.1111 0.5556-0.4444 (   478 PWs)   bands (ev):

   -68.0556 -34.3847 -34.1506 -34.0216  14.0941  15.6934  17.2017  18.8654
    19.4239  20.7003  25.6029  33.3840

          k =-0.2222-0.2222 0.4444 (   478 PWs)   bands (ev):

   -68.0650 -34.3133 -34.1369 -34.0397  13.8285  15.8742  16.1039  18.6649
    19.2817  20.1973  30.2990  30.8828

          k =-0.2222 0.6667-0.4444 (   474 PWs)   bands (ev):

   -68.0528 -34.3388 -34.1930 -34.0459  14.6872  15.7148  16.2597  18.8409
    19.2892  22.0382  26.5683  29.6289

          k =-0.3333 0.6667-0.3333 (   481 PWs)   bands (ev):

   -68.0489 -34.2779 -34.2779 -34.0543  15.2025  15.8125  15.8125  19.0693
    19.0693  24.9044  24.9044  27.1419

          k = 0.0000 0.0000 0.2222 (   478 PWs)   bands (ev):

   -68.1126 -34.0640 -34.0359 -34.0359  10.2009  16.8562  16.8562  17.1540
    18.5878  19.3368  38.3454  40.2574

          k = 0.0000-0.1111 0.3333 (   474 PWs)   bands (ev):

   -68.0920 -34.1681 -34.0760 -34.0420  11.5318  16.6026  16.7664  17.8357
    18.1842  19.4793  34.8144  37.9043

          k = 0.0000-0.2222 0.4444 (   472 PWs)   bands (ev):

   -68.0687 -34.2946 -34.1213 -34.0397  13.2077  16.2443  16.5372  18.3201
    18.8156  19.6809  30.0711  36.2166

          k = 0.0000-0.3333 0.5556 (   478 PWs)   bands (ev):

   -68.0536 -34.3766 -34.1509 -34.0383  14.1098  16.0163  16.8285  18.5335
    19.5530  20.4210  26.3125  35.2736

          k =-0.1111-0.1111 0.4444 (   476 PWs)   bands (ev):

   -68.0709 -34.2510 -34.1234 -34.0647  13.0085  16.4072  16.6254  17.9515
    18.5628  19.7529  32.6914  33.3038

          k =-0.1111-0.2222 0.5556 (   478 PWs)   bands (ev):

   -68.0523 -34.3302 -34.1747 -34.0676  14.3483  16.0309  16.4705  18.2513
    19.1899  20.7884  28.3852  31.5856

          k =-0.1111 0.6667-0.3333 (   474 PWs)   bands (ev):

   -68.0447 -34.3614 -34.1955 -34.0668  14.7161  16.1852  16.2605  18.3991
    19.4231  22.2390  25.7059  31.0263

          k =-0.2222 0.2222 0.2222 (   477 PWs)   bands (ev):

   -68.0891 -34.2306 -34.0414 -34.0414  11.9425  16.1609  16.1609  18.7131
    19.0477  19.0477  34.5336  34.5336

          k =-0.2222 0.7778-0.3333 (   476 PWs)   bands (ev):

   -68.0414 -34.3227 -34.2498 -34.0752  15.3180  15.6632  16.1744  18.6056
    19.1132  23.2602  26.8551  27.8400

          k =-0.3333 0.3333 0.2222 (   484 PWs)   bands (ev):

   -68.0702 -34.3099 -34.1025 -34.0457  13.6004  15.7676  15.9438  19.0183
    19.2698  19.9935  30.2183  32.9342

          k = 0.5556-0.5556 0.2222 (   486 PWs)   bands (ev):

   -68.0577 -34.3482 -34.1547 -34.0488  14.4231  15.5516  16.4533  19.0749
    19.3865  21.4779  26.4063  32.0526

          k = 0.5556-0.6667 0.3333 (   485 PWs)   bands (ev):

   -68.0584 -34.3183 -34.1522 -34.0789  14.8297  15.5779  15.7235  19.1604
    19.3555  21.8120  28.5630  29.2289

          k = 0.4444-0.5556 0.3333 (   484 PWs)   bands (ev):

   -68.0537 -34.2958 -34.2031 -34.0864  15.0480  15.5161  15.9916  19.2313
    19.3730  23.7486  25.8225  28.4916

          k = 0.0000 0.0000 0.4444 (   478 PWs)   bands (ev):

   -68.0734 -34.1830 -34.1183 -34.1183  12.7026  17.0886  17.0886  17.1971
    17.8897  19.7692  35.5268  35.6782

          k = 0.0000-0.1111 0.5556 (   476 PWs)   bands (ev):

   -68.0518 -34.2744 -34.1652 -34.1290  14.0807  16.2574  17.0483  17.6910
    18.6942  20.3529  30.9502  33.4933

          k = 0.0000-0.2222 0.6667 (   474 PWs)   bands (ev):

   -68.0377 -34.3451 -34.1961 -34.1236  14.8519  15.8350  16.9067  17.9860
    19.4599  22.1036  26.7767  32.1405

          k =-0.1111-0.1111 0.6667 (   471 PWs)   bands (ev):

   -68.0348 -34.3104 -34.2250 -34.1457  14.9312  15.6499  17.1266  18.1512
    19.1215  21.9944  29.2413  29.5618

          k =-0.1111 0.7778-0.2222 (   475 PWs)   bands (ev):

   -68.0282 -34.3253 -34.2559 -34.1452  15.2248  15.4262  16.9637  18.4878
    19.3133  24.3473  26.0657  28.7852

          k = 0.5556-0.5556 0.4444 (   477 PWs)   bands (ev):

   -68.0538 -34.2621 -34.1624 -34.1624  15.4655  15.4655  15.5664  19.3983
    19.3983  24.2732  27.6391  27.6391

          k = 0.0000 0.0000 0.6667 (   482 PWs)   bands (ev):

   -68.0327 -34.2652 -34.2155 -34.2155  14.7199  15.6812  17.9468  17.9468
    18.7534  21.5028  31.0121  31.0121

          k = 0.0000-0.1111 0.7778 (   474 PWs)   bands (ev):

   -68.0197 -34.3096 -34.2479 -34.2201  14.9466  15.1574  18.1439  18.3875
    19.3570  23.8649  27.6251  29.4677

          k =-0.1111 0.8889-0.1111 (   478 PWs)   bands (ev):

   -68.0138 -34.2938 -34.2938 -34.2287  14.9126  14.9126  18.2375  19.2032
    19.2032  26.5135  26.5135  27.2748

          k = 0.0000 0.0000 0.8889 (   486 PWs)   bands (ev):

   -68.0084 -34.2889 -34.2816 -34.2816  14.6941  14.7428  19.1581  19.1581
    19.3319  25.8944  27.7165  27.7165

     the Fermi energy is    17.2803 ev

!    total energy              =    -329.26177475 Ry
     Harris-Foulkes estimate   =    -329.26177464 Ry
     estimated scf accuracy    <          1.2E-09 Ry

     total all-electron energy =     -2545.558310 Ry

     The total energy is the sum of the following terms:

     one-electron contribution =    -113.54772024 Ry
     hartree contribution      =      66.80378127 Ry
     xc contribution           =     -34.79624478 Ry
     ewald contribution        =    -171.57343704 Ry
     one-center paw contrib.   =     -76.14984866 Ry
     smearing contrib. (-TS)   =       0.00169471 Ry

     total magnetization       =     2.11 Bohr mag/cell
     absolute magnetization    =     2.23 Bohr mag/cell

     convergence has been achieved in  13 iterations

     Forces acting on atoms (Ry/au):


     negative rho (up, down):  0.000E+00 1.681E-04
     atom    1 type  1   force =     0.00000000    0.00000000    0.00000000

     Total force =     0.000000     Total SCF correction =     0.000000


     entering subroutine stress ...


     negative rho (up, down):  0.000E+00 1.681E-04
          total   stress  (Ry/bohr**3)                   (kbar)     P= -171.75
  -0.00116750  -0.00000000   0.00000000       -171.75     -0.00      0.00
  -0.00000000  -0.00116750  -0.00000000         -0.00   -171.75     -0.00
   0.00000000  -0.00000000  -0.00116750          0.00     -0.00   -171.75


     Writing output data file Fe_bcc.save

     init_run     :      1.63s CPU      1.70s WALL (       1 calls)
     electrons    :     26.14s CPU     26.58s WALL (       1 calls)
     forces       :      0.12s CPU      0.13s WALL (       1 calls)
     stress       :      0.48s CPU      0.50s WALL (       1 calls)

     Called by init_run:
     wfcinit      :      0.56s CPU      0.57s WALL (       1 calls)
     potinit      :      0.54s CPU      0.57s WALL (       1 calls)

     Called by electrons:
     c_bands      :     16.22s CPU     16.33s WALL (      13 calls)
     sum_band     :      3.02s CPU      3.09s WALL (      13 calls)
     v_of_rho     :      0.30s CPU      0.31s WALL (      14 calls)
     newd         :      0.22s CPU      0.23s WALL (      14 calls)
     mix_rho      :      0.04s CPU      0.04s WALL (      13 calls)

     Called by c_bands:
     init_us_2    :      0.36s CPU      0.37s WALL (    2030 calls)
     cegterg      :     15.54s CPU     15.63s WALL (     910 calls)

     Called by *egterg:
     h_psi        :     13.22s CPU     13.43s WALL (    2972 calls)
     s_psi        :      0.37s CPU      0.30s WALL (    2972 calls)
     g_psi        :      0.08s CPU      0.08s WALL (    1992 calls)
     cdiaghg      :      0.89s CPU      0.90s WALL (    2902 calls)

     Called by h_psi:
     add_vuspsi   :      0.38s CPU      0.32s WALL (    2972 calls)

     General routines
     calbec       :      0.40s CPU      0.41s WALL (    4022 calls)
     fft          :      0.16s CPU      0.16s WALL (     468 calls)
     ffts         :      0.02s CPU      0.02s WALL (      54 calls)
     fftw         :     13.47s CPU     13.72s WALL (   65430 calls)
     interpolate  :      0.04s CPU      0.04s WALL (      54 calls)
     davcio       :      0.00s CPU      0.00s WALL (      70 calls)


     PAW routines
     PAW_pot      :      6.86s CPU      7.10s WALL (      14 calls)
     PAW_symme    :      0.02s CPU      0.02s WALL (      27 calls)

     PWSCF        :    28.84s CPU        29.44s WALL


   This run was terminated on:  10:24:49  11May2015            

=------------------------------------------------------------------------------=
   JOB DONE.
=------------------------------------------------------------------------------=
