
     Program PWSCF v.5.1.2 starts on 11May2015 at 10:30:12 

     This program is part of the open-source Quantum ESPRESSO suite
     for quantum simulation of materials; please cite
         "P. Giannozzi et al., J. Phys.:Condens. Matter 21 395502 (2009);
          URL http://www.quantum-espresso.org", 
     in publications or presentations arising from this work. More details at
     http://www.quantum-espresso.org/quote

     Serial version
     Reading input from Fe_bcc_5.44_10.pw.in

     Current dimensions of program PWSCF are:
     Max number of different atomic species (ntypx) = 10
     Max number of k-points (npk) =  40000
     Max angular momentum in pseudopotentials (lmaxx) =  3
               file Fe.pbe-spn-kjpaw_psl.0.2.1.UPF: wavefunction(s)  3D renormalized

     G-vector sticks info
     --------------------
     sticks:   dense  smooth     PW     G-vecs:    dense   smooth      PW
     Sum         411     333    117                 5425     3805     767

     Generating pointlists ...
     new r_m :   0.3572 (alat units)  1.9434 (a.u.) for type    1


     bravais-lattice index     =            3
     lattice parameter (alat)  =       5.4400  a.u.
     unit-cell volume          =      80.4946 (a.u.)^3
     number of atoms/cell      =            1
     number of atomic types    =            1
     number of electrons       =        16.00
     number of Kohn-Sham states=           12
     kinetic-energy cutoff     =      50.0000  Ry
     charge density cutoff     =     250.0000  Ry
     convergence threshold     =      1.0E-08
     mixing beta               =       0.7000
     number of iterations used =            8  plain     mixing
     Exchange-correlation      =  SLA  PW   PBX  PBC ( 1  4  3  4 0 0)

     celldm(1)=   5.440000  celldm(2)=   0.000000  celldm(3)=   0.000000
     celldm(4)=   0.000000  celldm(5)=   0.000000  celldm(6)=   0.000000

     crystal axes: (cart. coord. in units of alat)
               a(1) = (   0.500000   0.500000   0.500000 )  
               a(2) = (  -0.500000   0.500000   0.500000 )  
               a(3) = (  -0.500000  -0.500000   0.500000 )  

     reciprocal axes: (cart. coord. in units 2 pi/alat)
               b(1) = (  1.000000  0.000000  1.000000 )  
               b(2) = ( -1.000000  1.000000  0.000000 )  
               b(3) = (  0.000000 -1.000000  1.000000 )  


     PseudoPot. # 1 for Fe read from file:
     ./Fe.pbe-spn-kjpaw_psl.0.2.1.UPF
     MD5 check sum: a0a08122d52b112de96d1da1d7dd020f
     Pseudo is Projector augmented-wave + core cor, Zval = 16.0
     Generated using "atomic" code by A. Dal Corso  v.5.0.2 svn rev. 9415
     Shape of augmentation charge: PSQ
     Using radial grid of 1191 points,  6 beta functions with: 
                l(1) =   0
                l(2) =   0
                l(3) =   1
                l(4) =   1
                l(5) =   2
                l(6) =   2
     Q(r) pseudized with 0 coefficients 


     atomic species   valence    mass     pseudopotential
        Fe            16.00    55.85000     Fe( 1.00)

     Starting magnetic structure 
     atomic species   magnetization
        Fe           0.700

     48 Sym. Ops., with inversion, found



   Cartesian axes

     site n.     atom                  positions (alat units)
         1           Fe  tau(   1) = (   0.0000000   0.0000000   0.0000000  )

     number of k points=    94  Marzari-Vanderbilt smearing, width (Ry)=  0.0250
                       cart. coord. in units 2pi/alat
        k(    1) = (   0.0000000   0.0000000   0.0000000), wk =   0.0010000
        k(    2) = (   0.0000000  -0.1000000   0.1000000), wk =   0.0120000
        k(    3) = (   0.0000000  -0.2000000   0.2000000), wk =   0.0120000
        k(    4) = (   0.0000000  -0.3000000   0.3000000), wk =   0.0120000
        k(    5) = (   0.0000000  -0.4000000   0.4000000), wk =   0.0120000
        k(    6) = (   0.0000000   0.5000000  -0.5000000), wk =   0.0060000
        k(    7) = (  -0.1000000  -0.1000000   0.2000000), wk =   0.0240000
        k(    8) = (  -0.1000000  -0.2000000   0.3000000), wk =   0.0480000
        k(    9) = (  -0.1000000  -0.3000000   0.4000000), wk =   0.0480000
        k(   10) = (  -0.1000000   0.6000000  -0.5000000), wk =   0.0480000
        k(   11) = (  -0.2000000  -0.2000000   0.4000000), wk =   0.0240000
        k(   12) = (  -0.2000000   0.7000000  -0.5000000), wk =   0.0480000
        k(   13) = (  -0.2000000   0.6000000  -0.4000000), wk =   0.0240000
        k(   14) = (  -0.3000000   0.7000000  -0.4000000), wk =   0.0240000
        k(   15) = (   0.0000000   0.0000000   0.2000000), wk =   0.0060000
        k(   16) = (   0.0000000  -0.1000000   0.3000000), wk =   0.0240000
        k(   17) = (   0.0000000  -0.2000000   0.4000000), wk =   0.0240000
        k(   18) = (   0.0000000  -0.3000000   0.5000000), wk =   0.0240000
        k(   19) = (   0.0000000   0.6000000  -0.4000000), wk =   0.0120000
        k(   20) = (  -0.1000000  -0.1000000   0.4000000), wk =   0.0240000
        k(   21) = (  -0.1000000  -0.2000000   0.5000000), wk =   0.0480000
        k(   22) = (  -0.1000000   0.7000000  -0.4000000), wk =   0.0480000
        k(   23) = (  -0.2000000   0.2000000   0.2000000), wk =   0.0080000
        k(   24) = (  -0.2000000   0.8000000  -0.4000000), wk =   0.0240000
        k(   25) = (  -0.2000000   0.7000000  -0.3000000), wk =   0.0240000
        k(   26) = (  -0.3000000   0.3000000   0.2000000), wk =   0.0240000
        k(   27) = (   0.6000000  -0.6000000   0.2000000), wk =   0.0240000
        k(   28) = (   0.6000000  -0.7000000   0.3000000), wk =   0.0240000
        k(   29) = (   0.5000000  -0.5000000   0.2000000), wk =   0.0120000
        k(   30) = (   0.5000000  -0.6000000   0.3000000), wk =   0.0480000
        k(   31) = (   0.4000000  -0.6000000   0.4000000), wk =   0.0080000
        k(   32) = (   0.0000000   0.0000000   0.4000000), wk =   0.0060000
        k(   33) = (   0.0000000  -0.1000000   0.5000000), wk =   0.0240000
        k(   34) = (   0.0000000  -0.2000000   0.6000000), wk =   0.0240000
        k(   35) = (   0.0000000   0.7000000  -0.3000000), wk =   0.0120000
        k(   36) = (  -0.1000000  -0.1000000   0.6000000), wk =   0.0240000
        k(   37) = (  -0.1000000   0.8000000  -0.3000000), wk =   0.0480000
        k(   38) = (  -0.2000000   0.8000000  -0.2000000), wk =   0.0080000
        k(   39) = (   0.6000000  -0.6000000   0.4000000), wk =   0.0080000
        k(   40) = (   0.5000000  -0.5000000   0.4000000), wk =   0.0120000
        k(   41) = (   0.0000000   0.0000000   0.6000000), wk =   0.0060000
        k(   42) = (   0.0000000  -0.1000000   0.7000000), wk =   0.0240000
        k(   43) = (   0.0000000   0.8000000  -0.2000000), wk =   0.0120000
        k(   44) = (  -0.1000000   0.9000000  -0.2000000), wk =   0.0240000
        k(   45) = (   0.0000000   0.0000000   0.8000000), wk =   0.0060000
        k(   46) = (   0.0000000   0.9000000  -0.1000000), wk =   0.0120000
        k(   47) = (   0.0000000   0.0000000  -1.0000000), wk =   0.0010000
        k(   48) = (   0.0000000   0.0000000   0.0000000), wk =   0.0010000
        k(   49) = (   0.0000000  -0.1000000   0.1000000), wk =   0.0120000
        k(   50) = (   0.0000000  -0.2000000   0.2000000), wk =   0.0120000
        k(   51) = (   0.0000000  -0.3000000   0.3000000), wk =   0.0120000
        k(   52) = (   0.0000000  -0.4000000   0.4000000), wk =   0.0120000
        k(   53) = (   0.0000000   0.5000000  -0.5000000), wk =   0.0060000
        k(   54) = (  -0.1000000  -0.1000000   0.2000000), wk =   0.0240000
        k(   55) = (  -0.1000000  -0.2000000   0.3000000), wk =   0.0480000
        k(   56) = (  -0.1000000  -0.3000000   0.4000000), wk =   0.0480000
        k(   57) = (  -0.1000000   0.6000000  -0.5000000), wk =   0.0480000
        k(   58) = (  -0.2000000  -0.2000000   0.4000000), wk =   0.0240000
        k(   59) = (  -0.2000000   0.7000000  -0.5000000), wk =   0.0480000
        k(   60) = (  -0.2000000   0.6000000  -0.4000000), wk =   0.0240000
        k(   61) = (  -0.3000000   0.7000000  -0.4000000), wk =   0.0240000
        k(   62) = (   0.0000000   0.0000000   0.2000000), wk =   0.0060000
        k(   63) = (   0.0000000  -0.1000000   0.3000000), wk =   0.0240000
        k(   64) = (   0.0000000  -0.2000000   0.4000000), wk =   0.0240000
        k(   65) = (   0.0000000  -0.3000000   0.5000000), wk =   0.0240000
        k(   66) = (   0.0000000   0.6000000  -0.4000000), wk =   0.0120000
        k(   67) = (  -0.1000000  -0.1000000   0.4000000), wk =   0.0240000
        k(   68) = (  -0.1000000  -0.2000000   0.5000000), wk =   0.0480000
        k(   69) = (  -0.1000000   0.7000000  -0.4000000), wk =   0.0480000
        k(   70) = (  -0.2000000   0.2000000   0.2000000), wk =   0.0080000
        k(   71) = (  -0.2000000   0.8000000  -0.4000000), wk =   0.0240000
        k(   72) = (  -0.2000000   0.7000000  -0.3000000), wk =   0.0240000
        k(   73) = (  -0.3000000   0.3000000   0.2000000), wk =   0.0240000
        k(   74) = (   0.6000000  -0.6000000   0.2000000), wk =   0.0240000
        k(   75) = (   0.6000000  -0.7000000   0.3000000), wk =   0.0240000
        k(   76) = (   0.5000000  -0.5000000   0.2000000), wk =   0.0120000
        k(   77) = (   0.5000000  -0.6000000   0.3000000), wk =   0.0480000
        k(   78) = (   0.4000000  -0.6000000   0.4000000), wk =   0.0080000
        k(   79) = (   0.0000000   0.0000000   0.4000000), wk =   0.0060000
        k(   80) = (   0.0000000  -0.1000000   0.5000000), wk =   0.0240000
        k(   81) = (   0.0000000  -0.2000000   0.6000000), wk =   0.0240000
        k(   82) = (   0.0000000   0.7000000  -0.3000000), wk =   0.0120000
        k(   83) = (  -0.1000000  -0.1000000   0.6000000), wk =   0.0240000
        k(   84) = (  -0.1000000   0.8000000  -0.3000000), wk =   0.0480000
        k(   85) = (  -0.2000000   0.8000000  -0.2000000), wk =   0.0080000
        k(   86) = (   0.6000000  -0.6000000   0.4000000), wk =   0.0080000
        k(   87) = (   0.5000000  -0.5000000   0.4000000), wk =   0.0120000
        k(   88) = (   0.0000000   0.0000000   0.6000000), wk =   0.0060000
        k(   89) = (   0.0000000  -0.1000000   0.7000000), wk =   0.0240000
        k(   90) = (   0.0000000   0.8000000  -0.2000000), wk =   0.0120000
        k(   91) = (  -0.1000000   0.9000000  -0.2000000), wk =   0.0240000
        k(   92) = (   0.0000000   0.0000000   0.8000000), wk =   0.0060000
        k(   93) = (   0.0000000   0.9000000  -0.1000000), wk =   0.0120000
        k(   94) = (   0.0000000   0.0000000  -1.0000000), wk =   0.0010000

     Dense  grid:     5425 G-vectors     FFT dimensions: (  24,  24,  24)

     Smooth grid:     3805 G-vectors     FFT dimensions: (  24,  24,  24)

     Largest allocated arrays     est. size (Mb)     dimensions
        Kohn-Sham Wavefunctions         0.09 Mb     (     490,   12)
        NL pseudopotentials             0.13 Mb     (     490,   18)
        Each V/rho on FFT grid          0.42 Mb     (   13824,   2)
        Each G-vector array             0.04 Mb     (    5425)
        G-vector shells                 0.00 Mb     (      88)
     Largest temporary arrays     est. size (Mb)     dimensions
        Auxiliary wavefunctions         0.36 Mb     (     490,   48)
        Each subspace H/S matrix        0.04 Mb     (      48,   48)
        Each <psi_i|beta_j> matrix      0.00 Mb     (      18,   12)
        Arrays for rho mixing           1.69 Mb     (   13824,    8)

     Check: negative/imaginary core charge=   -0.000427    0.000000

     Initial potential from superposition of free atoms

     starting charge   15.99956, renormalised to   16.00000
     Starting wfc are   13 randomized atomic wfcs

     total cpu time spent up to now is        2.3 secs

     Self-consistent Calculation

     iteration #  1     ecut=    50.00 Ry     beta=0.70
     Davidson diagonalization with overlap
     ethr =  1.00E-02,  avg # of iterations =  3.2

     negative rho (up, down):  0.000E+00 3.509E-04

     Magnetic moment per site:
     atom:    1    charge:   14.3015    magn:    5.6999    constr:    0.0000

     total cpu time spent up to now is        5.2 secs

     total energy              =    -328.99391735 Ry
     Harris-Foulkes estimate   =    -328.06752299 Ry
     estimated scf accuracy    <       1.50821697 Ry

     total magnetization       =     3.84 Bohr mag/cell
     absolute magnetization    =     3.88 Bohr mag/cell

     iteration #  2     ecut=    50.00 Ry     beta=0.70
     Davidson diagonalization with overlap
     ethr =  9.43E-03,  avg # of iterations =  1.2

     negative rho (up, down):  0.000E+00 3.814E-04

     Magnetic moment per site:
     atom:    1    charge:   14.5263    magn:    3.5206    constr:    0.0000

     total cpu time spent up to now is        7.5 secs

     total energy              =    -329.16020711 Ry
     Harris-Foulkes estimate   =    -329.10321057 Ry
     estimated scf accuracy    <       0.34164855 Ry

     total magnetization       =     3.09 Bohr mag/cell
     absolute magnetization    =     3.21 Bohr mag/cell

     iteration #  3     ecut=    50.00 Ry     beta=0.70
     Davidson diagonalization with overlap
     ethr =  2.14E-03,  avg # of iterations =  2.1

     negative rho (up, down):  0.000E+00 3.937E-04

     Magnetic moment per site:
     atom:    1    charge:   14.4110    magn:    2.5636    constr:    0.0000

     total cpu time spent up to now is       10.0 secs

     total energy              =    -329.18028261 Ry
     Harris-Foulkes estimate   =    -329.34265637 Ry
     estimated scf accuracy    <       0.46219241 Ry

     total magnetization       =     2.59 Bohr mag/cell
     absolute magnetization    =     2.73 Bohr mag/cell

     iteration #  4     ecut=    50.00 Ry     beta=0.70
     Davidson diagonalization with overlap
     ethr =  2.14E-03,  avg # of iterations =  2.0

     negative rho (up, down):  0.000E+00 2.307E-04

     Magnetic moment per site:
     atom:    1    charge:   14.4500    magn:    2.3121    constr:    0.0000

     total cpu time spent up to now is       12.4 secs

     total energy              =    -329.25730004 Ry
     Harris-Foulkes estimate   =    -329.25671127 Ry
     estimated scf accuracy    <       0.00206658 Ry

     total magnetization       =     2.37 Bohr mag/cell
     absolute magnetization    =     2.55 Bohr mag/cell

     iteration #  5     ecut=    50.00 Ry     beta=0.70
     Davidson diagonalization with overlap
     ethr =  1.29E-05,  avg # of iterations =  3.4

     negative rho (up, down):  0.000E+00 2.307E-04

     Magnetic moment per site:
     atom:    1    charge:   14.4446    magn:    2.2949    constr:    0.0000

     total cpu time spent up to now is       15.3 secs

     total energy              =    -329.26122337 Ry
     Harris-Foulkes estimate   =    -329.26083898 Ry
     estimated scf accuracy    <       0.00057981 Ry

     total magnetization       =     2.19 Bohr mag/cell
     absolute magnetization    =     2.35 Bohr mag/cell

     iteration #  6     ecut=    50.00 Ry     beta=0.70
     Davidson diagonalization with overlap
     ethr =  3.62E-06,  avg # of iterations =  1.1

     negative rho (up, down):  0.000E+00 7.477E-05

     Magnetic moment per site:
     atom:    1    charge:   14.4232    magn:    1.9283    constr:    0.0000

     total cpu time spent up to now is       17.3 secs

     total energy              =    -329.25697168 Ry
     Harris-Foulkes estimate   =    -329.26126678 Ry
     estimated scf accuracy    <       0.00048735 Ry

     total magnetization       =     2.17 Bohr mag/cell
     absolute magnetization    =     2.32 Bohr mag/cell

     iteration #  7     ecut=    50.00 Ry     beta=0.70
     Davidson diagonalization with overlap
     ethr =  3.05E-06,  avg # of iterations =  2.6

     negative rho (up, down):  0.000E+00 1.737E-04

     Magnetic moment per site:
     atom:    1    charge:   14.4324    magn:    2.1785    constr:    0.0000

     total cpu time spent up to now is       20.1 secs

     total energy              =    -329.26115156 Ry
     Harris-Foulkes estimate   =    -329.25923211 Ry
     estimated scf accuracy    <       0.00156846 Ry

     total magnetization       =     2.04 Bohr mag/cell
     absolute magnetization    =     2.16 Bohr mag/cell

     iteration #  8     ecut=    50.00 Ry     beta=0.70
     Davidson diagonalization with overlap
     ethr =  3.05E-06,  avg # of iterations =  2.0

     negative rho (up, down):  0.000E+00 1.760E-04

     Magnetic moment per site:
     atom:    1    charge:   14.4343    magn:    2.1866    constr:    0.0000

     total cpu time spent up to now is       22.7 secs

     total energy              =    -329.26184217 Ry
     Harris-Foulkes estimate   =    -329.26184060 Ry
     estimated scf accuracy    <       0.00000807 Ry

     total magnetization       =     2.11 Bohr mag/cell
     absolute magnetization    =     2.25 Bohr mag/cell

     iteration #  9     ecut=    50.00 Ry     beta=0.70
     Davidson diagonalization with overlap
     ethr =  5.04E-08,  avg # of iterations =  2.5

     negative rho (up, down):  0.000E+00 1.745E-04

     Magnetic moment per site:
     atom:    1    charge:   14.4342    magn:    2.1787    constr:    0.0000

     total cpu time spent up to now is       25.1 secs

     total energy              =    -329.26185467 Ry
     Harris-Foulkes estimate   =    -329.26184469 Ry
     estimated scf accuracy    <       0.00000836 Ry

     total magnetization       =     2.12 Bohr mag/cell
     absolute magnetization    =     2.25 Bohr mag/cell

     iteration # 10     ecut=    50.00 Ry     beta=0.70
     Davidson diagonalization with overlap
     ethr =  5.04E-08,  avg # of iterations =  1.2

     negative rho (up, down):  0.000E+00 1.709E-04

     Magnetic moment per site:
     atom:    1    charge:   14.4338    magn:    2.1691    constr:    0.0000

     total cpu time spent up to now is       27.3 secs

     total energy              =    -329.26185689 Ry
     Harris-Foulkes estimate   =    -329.26185571 Ry
     estimated scf accuracy    <       0.00000237 Ry

     total magnetization       =     2.11 Bohr mag/cell
     absolute magnetization    =     2.25 Bohr mag/cell

     iteration # 11     ecut=    50.00 Ry     beta=0.70
     Davidson diagonalization with overlap
     ethr =  1.48E-08,  avg # of iterations =  1.6

     negative rho (up, down):  0.000E+00 1.711E-04

     Magnetic moment per site:
     atom:    1    charge:   14.4337    magn:    2.1695    constr:    0.0000

     total cpu time spent up to now is       29.4 secs

     End of self-consistent calculation

 ------ SPIN UP ------------


          k = 0.0000 0.0000 0.0000 (   459 PWs)   bands (ev):

   -70.8138 -36.6459 -36.6459 -36.6459   8.9847  15.0926  15.0926  15.0926
    16.0198  16.0198  41.6466  41.6466

          k = 0.0000-0.1000 0.1000 (   481 PWs)   bands (ev):

   -70.8086 -36.6821 -36.6584 -36.6473   9.3812  14.9886  15.0759  15.3006
    15.9319  16.0285  39.2133  40.9466

          k = 0.0000-0.2000 0.2000 (   483 PWs)   bands (ev):

   -70.7927 -36.7705 -36.6887 -36.6478  10.4851  14.7231  14.9440  15.8727
    15.8807  16.0588  34.7999  38.9574

          k = 0.0000-0.3000 0.3000 (   483 PWs)   bands (ev):

   -70.7729 -36.8787 -36.7253 -36.6480  11.8517  14.4076  15.0253  16.0329
    16.1115  16.6470  30.2135  36.9514

          k = 0.0000-0.4000 0.4000 (   476 PWs)   bands (ev):

   -70.7565 -36.9648 -36.7542 -36.6475  12.4692  14.1619  15.9722  16.1672
    16.5817  17.3435  26.1902  35.6030

          k = 0.0000 0.5000-0.5000 (   476 PWs)   bands (ev):

   -70.7504 -36.9971 -36.7652 -36.6476  12.5179  14.0701  16.1511  16.1917
    17.6303  17.7521  24.1429  35.1272

          k =-0.1000-0.1000 0.2000 (   487 PWs)   bands (ev):

   -70.7977 -36.7432 -36.6718 -36.6562  10.1377  14.8585  14.9059  15.7341
    15.8224  16.0823  36.7939  37.9480

          k =-0.1000-0.2000 0.3000 (   482 PWs)   bands (ev):

   -70.7796 -36.8350 -36.7072 -36.6596  11.4466  14.5587  14.7216  15.8508
    16.1666  16.5072  32.6472  35.6488

          k =-0.1000-0.3000 0.4000 (   483 PWs)   bands (ev):

   -70.7618 -36.9248 -36.7472 -36.6604  12.5180  14.2801  15.0473  16.0599
    16.2969  17.5094  28.2584  34.1422

          k =-0.1000 0.6000-0.5000 (   484 PWs)   bands (ev):

   -70.7507 -36.9796 -36.7723 -36.6605  12.7098  14.1249  15.6904  16.1343
    16.7889  18.7778  24.8260  33.3194

          k =-0.2000-0.2000 0.4000 (   489 PWs)   bands (ev):

   -70.7639 -36.9007 -36.7441 -36.6752  12.6450  14.2490  14.6090  15.9108
    16.3059  17.6437  30.6309  31.3990

          k =-0.2000 0.7000-0.5000 (   478 PWs)   bands (ev):

   -70.7505 -36.9420 -36.7900 -36.6804  13.2089  14.1237  14.8149  16.0881
    16.4887  19.3587  26.8104  29.9137

          k =-0.2000 0.6000-0.4000 (   484 PWs)   bands (ev):

   -70.7458 -36.9551 -36.8119 -36.6823  13.2090  14.1367  14.9780  16.1576
    16.6582  20.9346  24.3597  29.4782

          k =-0.3000 0.7000-0.4000 (   482 PWs)   bands (ev):

   -70.7438 -36.9207 -36.8520 -36.6905  13.6842  14.0602  14.4972  16.2717
    16.4978  21.9635  25.3266  26.7165

          k = 0.0000 0.0000 0.2000 (   478 PWs)   bands (ev):

   -70.8025 -36.6906 -36.6703 -36.6703   9.7697  15.1003  15.1003  15.3027
    15.6884  16.1493  38.4114  40.2653

          k = 0.0000-0.1000 0.3000 (   479 PWs)   bands (ev):

   -70.7869 -36.7700 -36.7007 -36.6751  10.8342  14.9139  14.9615  15.5498
    15.8218  16.2751  35.0286  38.0156

          k = 0.0000-0.2000 0.4000 (   474 PWs)   bands (ev):

   -70.7674 -36.8735 -36.7375 -36.6735  12.1351  14.6254  14.7164  15.8529
    16.5308  16.6027  30.4982  36.2915

          k = 0.0000-0.3000 0.5000 (   480 PWs)   bands (ev):

   -70.7520 -36.9574 -36.7678 -36.6724  12.7013  14.3969  15.0023  16.0189
    17.3120  17.6890  26.3934  35.2405

          k = 0.0000 0.6000-0.4000 (   484 PWs)   bands (ev):

   -70.7462 -36.9890 -36.7794 -36.6719  12.7292  14.3112  15.2375  15.9971
    17.6057  18.9813  24.2025  34.6958

          k =-0.1000-0.1000 0.4000 (   476 PWs)   bands (ev):

   -70.7698 -36.8386 -36.7352 -36.6932  11.9946  14.5498  14.9506  15.5590
    16.3265  16.6552  32.8692  33.7832

          k =-0.1000-0.2000 0.5000 (   475 PWs)   bands (ev):

   -70.7527 -36.9156 -36.7766 -36.6959  12.9296  14.2331  14.8281  15.8589
    16.7301  17.9200  28.7737  31.8947

          k =-0.1000 0.7000-0.4000 (   481 PWs)   bands (ev):

   -70.7424 -36.9634 -36.8040 -36.6959  13.0717  14.4018  14.6605  15.9807
    17.2096  19.8971  25.1091  31.0285

          k =-0.2000 0.2000 0.2000 (   483 PWs)   bands (ev):

   -70.7842 -36.8221 -36.6739 -36.6739  11.1784  14.5717  14.5717  16.0036
    16.0036  16.5238  34.8153  34.8153

          k =-0.2000 0.8000-0.4000 (   473 PWs)   bands (ev):

   -70.7406 -36.9345 -36.8324 -36.7042  13.5523  13.8371  14.6873  16.1390
    16.8397  20.1959  27.1967  28.0393

          k =-0.2000 0.7000-0.3000 (   478 PWs)   bands (ev):

   -70.7363 -36.9336 -36.8643 -36.7061  13.5801  14.0923  14.3391  16.3391
    16.8897  22.4296  24.5653  27.3217

          k =-0.3000 0.3000 0.2000 (   487 PWs)   bands (ev):

   -70.7679 -36.8969 -36.7192 -36.6766  12.5108  14.2755  14.4247  16.0518
    16.1220  17.6133  30.6643  33.2333

          k = 0.6000-0.6000 0.2000 (   488 PWs)   bands (ev):

   -70.7546 -36.9467 -36.7652 -36.6793  13.0438  14.0795  15.1395  16.1560
    16.1837  19.0822  26.5918  32.1993

          k = 0.6000-0.7000 0.3000 (   484 PWs)   bands (ev):

   -70.7558 -36.9270 -36.7535 -36.7016  13.4893  14.0846  14.3520  16.1293
    16.2096  19.2101  28.9672  29.6317

          k = 0.5000-0.5000 0.2000 (   488 PWs)   bands (ev):

   -70.7495 -36.9633 -36.7847 -36.6803  13.0333  14.0115  15.7131  16.1963
    16.2029  20.3742  24.3003  31.8392

          k = 0.5000-0.6000 0.3000 (   484 PWs)   bands (ev):

   -70.7484 -36.9241 -36.8038 -36.7096  13.5703  14.0369  14.8274  16.2101
    16.2628  21.3747  25.4997  28.5940

          k = 0.4000-0.6000 0.4000 (   490 PWs)   bands (ev):

   -70.7464 -36.8678 -36.8678 -36.7211  13.7569  14.3588  14.3588  16.2676
    16.2676  24.1143  24.1143  26.2347

          k = 0.0000 0.0000 0.4000 (   482 PWs)   bands (ev):

   -70.7724 -36.7844 -36.7324 -36.7324  11.7499  14.8105  15.2765  15.2765
    15.8608  16.5988  35.2403  35.9790

          k = 0.0000-0.1000 0.5000 (   482 PWs)   bands (ev):

   -70.7544 -36.8622 -36.7709 -36.7418  12.7508  14.2395  15.2152  15.6276
    16.5060  17.3215  31.2975  33.9089

          k = 0.0000-0.2000 0.6000 (   480 PWs)   bands (ev):

   -70.7397 -36.9365 -36.8015 -36.7377  13.1357  14.0218  15.0568  15.8310
    17.2312  19.1566  27.0534  32.4422

          k = 0.0000 0.7000-0.3000 (   476 PWs)   bands (ev):

   -70.7340 -36.9647 -36.8128 -36.7357  13.0986  14.0881  14.9923  15.8474
    17.5416  21.0183  24.4500  31.9025

          k =-0.1000-0.1000 0.6000 (   478 PWs)   bands (ev):

   -70.7387 -36.9059 -36.8166 -36.7578  13.2570  13.7425  15.2916  15.9539
    16.8917  18.9957  29.5480  30.0349

          k =-0.1000 0.8000-0.3000 (   477 PWs)   bands (ev):

   -70.7290 -36.9378 -36.8501 -36.7574  13.2906  13.6239  15.1355  16.2471
    17.2527  21.5860  25.8244  28.9095

          k =-0.2000 0.8000-0.2000 (   469 PWs)   bands (ev):

   -70.7246 -36.9063 -36.9063 -36.7582  13.4132  13.4132  15.0327  16.8956
    16.8956  24.4955  24.4955  26.3633

          k = 0.6000-0.6000 0.4000 (   483 PWs)   bands (ev):

   -70.7493 -36.9092 -36.7619 -36.7619  14.0375  14.0375  14.3029  16.2097
    16.2097  21.3813  27.9223  27.9223

          k = 0.5000-0.5000 0.4000 (   480 PWs)   bands (ev):

   -70.7468 -36.8736 -36.8135 -36.7651  14.0093  14.0365  14.5194  16.2211
    16.2297  23.6980  25.1149  27.5698

          k = 0.0000 0.0000 0.6000 (   478 PWs)   bands (ev):

   -70.7377 -36.8622 -36.8105 -36.8105  13.1191  13.7255  15.8664  15.8664
    16.5669  18.6025  31.6501  31.6501

          k = 0.0000-0.1000 0.7000 (   475 PWs)   bands (ev):

   -70.7243 -36.9103 -36.8431 -36.8174  13.1410  13.3070  15.9873  16.2056
    17.1394  20.8505  28.0911  30.0158

          k = 0.0000 0.8000-0.2000 (   480 PWs)   bands (ev):

   -70.7194 -36.9355 -36.8559 -36.8141  13.0363  13.2302  15.9684  16.3108
    17.4631  23.2675  25.0648  29.3860

          k =-0.1000 0.9000-0.2000 (   476 PWs)   bands (ev):

   -70.7156 -36.9166 -36.8849 -36.8262  12.9998  13.0110  16.0786  16.8389
    17.2739  23.5257  26.7697  27.3229

          k = 0.0000 0.0000 0.8000 (   486 PWs)   bands (ev):

   -70.7124 -36.8963 -36.8772 -36.8772  12.8410  12.8627  16.8099  16.8099
    17.1503  23.0346  28.2231  28.2231

          k = 0.0000 0.9000-0.1000 (   482 PWs)   bands (ev):

   -70.7076 -36.9116 -36.8900 -36.8782  12.6973  12.7116  16.9365  17.0527
    17.3999  25.5287  26.0937  27.5349

          k = 0.0000 0.0000-1.0000 (   490 PWs)   bands (ev):

   -70.7033 -36.9029 -36.9029 -36.9029  12.5386  12.5386  17.3759  17.3759
    17.3759  26.8071  26.8071  26.8071

 ------ SPIN DOWN ----------


          k = 0.0000 0.0000 0.0000 (   459 PWs)   bands (ev):

   -68.2466 -34.1247 -34.1247 -34.1247   9.1238  16.7611  16.7611  16.7611
    19.0102  19.0102  41.3638  41.3638

          k = 0.0000-0.1000 0.1000 (   481 PWs)   bands (ev):

   -68.2407 -34.1645 -34.1382 -34.1260   9.5228  16.6376  16.7363  16.9865
    18.8782  19.0199  39.2936  40.8247

          k = 0.0000-0.2000 0.2000 (   483 PWs)   bands (ev):

   -68.2234 -34.2627 -34.1713 -34.1265  10.6524  16.3243  16.6083  17.6096
    18.6694  19.0577  35.2518  39.0313

          k = 0.0000-0.3000 0.3000 (   483 PWs)   bands (ev):

   -68.2019 -34.3829 -34.2114 -34.1267  12.2203  15.9554  16.4897  18.4622
    18.6411  19.1304  30.9211  37.0400

          k = 0.0000-0.4000 0.4000 (   476 PWs)   bands (ev):

   -68.1842 -34.4785 -34.2434 -34.1263  13.4277  15.6704  17.0400  18.7315
    19.2120  19.2413  27.1813  35.6520

          k = 0.0000 0.5000-0.5000 (   476 PWs)   bands (ev):

   -68.1775 -34.5146 -34.2555 -34.1263  13.7307  15.5644  17.8181  18.7734
    19.2490  19.5664  25.4120  35.1555

          k =-0.1000-0.1000 0.2000 (   487 PWs)   bands (ev):

   -68.2289 -34.2324 -34.1527 -34.1357  10.2907  16.4809  16.5636  17.4481
    18.6777  19.0715  37.0837  38.2035

          k =-0.1000-0.2000 0.3000 (   482 PWs)   bands (ev):

   -68.2093 -34.3344 -34.1917 -34.1395  11.6775  16.1434  16.3487  18.2499
    18.5399  19.1663  33.2151  36.0009

          k =-0.1000-0.3000 0.4000 (   483 PWs)   bands (ev):

   -68.1898 -34.4341 -34.2358 -34.1403  13.1778  15.8065  16.3724  18.6104
    19.0878  19.3897  29.0666  34.5010

          k =-0.1000 0.6000-0.5000 (   484 PWs)   bands (ev):

   -68.1777 -34.4947 -34.2634 -34.1405  13.8859  15.6134  17.0060  18.7270
    19.2742  20.1997  25.9544  33.6626

          k =-0.2000-0.2000 0.4000 (   489 PWs)   bands (ev):

   -68.1921 -34.4071 -34.2326 -34.1566  13.1025  15.9095  16.0311  18.4988
    19.0560  19.5348  31.3019  31.9516

          k =-0.2000 0.7000-0.5000 (   478 PWs)   bands (ev):

   -68.1776 -34.4529 -34.2836 -34.1625  14.2435  15.6613  16.1159  18.6346
    19.1797  20.8618  27.6715  30.5072

          k =-0.2000 0.6000-0.4000 (   484 PWs)   bands (ev):

   -68.1723 -34.4674 -34.3077 -34.1645  14.5023  15.6088  16.3615  18.7371
    19.1865  22.0549  25.4887  30.0647

          k =-0.3000 0.7000-0.4000 (   482 PWs)   bands (ev):

   -68.1703 -34.4289 -34.3526 -34.1735  14.9646  15.5816  15.8971  18.8033
    19.0661  23.1068  26.2444  27.4670

          k = 0.0000 0.0000 0.2000 (   478 PWs)   bands (ev):

   -68.2341 -34.1744 -34.1512 -34.1512   9.9164  16.7459  16.7459  16.9914
    18.5618  19.1704  38.5284  40.3795

          k = 0.0000-0.1000 0.3000 (   479 PWs)   bands (ev):

   -68.2172 -34.2623 -34.1846 -34.1567  11.0185  16.5239  16.6811  17.5530
    18.1870  19.2900  35.4894  38.2708

          k = 0.0000-0.2000 0.4000 (   474 PWs)   bands (ev):

   -68.1961 -34.3772 -34.2252 -34.1551  12.5448  16.1871  16.4686  18.1905
    18.4119  19.4135  31.2017  36.5562

          k = 0.0000-0.3000 0.5000 (   480 PWs)   bands (ev):

   -68.1792 -34.4700 -34.2583 -34.1538  13.7250  15.9220  16.6119  18.4208
    19.2056  19.7926  27.3584  35.4047

          k = 0.0000 0.6000-0.4000 (   484 PWs)   bands (ev):

   -68.1728 -34.5051 -34.2710 -34.1533  14.0226  15.8230  16.9397  18.4802
    19.5391  20.3769  25.4375  35.1756

          k =-0.1000-0.1000 0.4000 (   476 PWs)   bands (ev):

   -68.1986 -34.3386 -34.2227 -34.1767  12.3145  16.4261  16.5041  17.8928
    18.1808  19.4759  33.4898  34.2782

          k =-0.1000-0.2000 0.5000 (   475 PWs)   bands (ev):

   -68.1800 -34.4236 -34.2685 -34.1797  13.7103  16.0418  16.3697  18.0744
    18.9153  19.9897  29.5585  32.4620

          k =-0.1000 0.7000-0.4000 (   481 PWs)   bands (ev):

   -68.1687 -34.4765 -34.2986 -34.1796  14.4096  15.9949  16.3015  18.2956
    19.2745  21.3092  26.1670  31.5915

          k =-0.2000 0.2000 0.2000 (   483 PWs)   bands (ev):

   -68.2143 -34.3199 -34.1552 -34.1552  11.3621  16.1770  16.1770  18.2614
    18.8987  18.8987  35.1984  35.1984

          k =-0.2000 0.8000-0.4000 (   473 PWs)   bands (ev):

   -68.1670 -34.4444 -34.3304 -34.1887  14.7581  15.6526  16.2647  18.2944
    19.0444  21.6672  28.0927  28.7045

          k =-0.2000 0.7000-0.3000 (   478 PWs)   bands (ev):

   -68.1622 -34.4430 -34.3659 -34.1907  15.1390  15.7972  15.8772  18.5203
    19.0150  23.5457  25.6166  28.0458

          k =-0.3000 0.3000 0.2000 (   487 PWs)   bands (ev):

   -68.1964 -34.4028 -34.2051 -34.1583  12.8681  15.7975  15.9281  18.8393
    19.0919  19.3101  31.2910  33.6312

          k = 0.6000-0.6000 0.2000 (   488 PWs)   bands (ev):

   -68.1819 -34.4581 -34.2559 -34.1613  14.0236  15.5364  16.1808  18.8884
    19.2192  20.5256  27.4659  32.5783

          k = 0.6000-0.7000 0.3000 (   484 PWs)   bands (ev):

   -68.1833 -34.4362 -34.2434 -34.1859  14.2081  15.5632  15.6397  18.9503
    19.1865  20.7021  29.6359  30.2313

          k = 0.5000-0.5000 0.2000 (   488 PWs)   bands (ev):

   -68.1763 -34.4766 -34.2774 -34.1624  14.2616  15.4446  16.6522  18.9241
    19.2646  21.4320  25.4559  32.2056

          k = 0.5000-0.6000 0.3000 (   484 PWs)   bands (ev):

   -68.1752 -34.4331 -34.2992 -34.1948  14.7803  15.4226  15.9303  19.0312
    19.2403  22.4818  26.3909  29.2045

          k = 0.4000-0.6000 0.4000 (   490 PWs)   bands (ev):

   -68.1729 -34.3704 -34.3704 -34.2073  15.0513  15.6179  15.6179  19.1603
    19.1603  24.9898  24.9898  27.0228

          k = 0.0000 0.0000 0.4000 (   482 PWs)   bands (ev):

   -68.2015 -34.2789 -34.2195 -34.2195  12.0281  16.8896  16.8896  17.3930
    17.6053  19.5215  35.7648  36.4625

          k = 0.0000-0.1000 0.5000 (   482 PWs)   bands (ev):

   -68.1819 -34.3646 -34.2619 -34.2303  13.3702  16.4291  16.8144  17.4919
    18.3057  19.8381  31.9760  34.4211

          k = 0.0000-0.2000 0.6000 (   480 PWs)   bands (ev):

   -68.1659 -34.4464 -34.2957 -34.2259  14.4086  15.9473  16.6332  17.8793
    19.1147  20.8542  27.9287  32.9292

          k = 0.0000 0.7000-0.3000 (   476 PWs)   bands (ev):

   -68.1597 -34.4777 -34.3082 -34.2237  14.6866  15.9014  16.5593  17.9442
    19.4683  22.2097  25.5615  32.3655

          k =-0.1000-0.1000 0.6000 (   478 PWs)   bands (ev):

   -68.1647 -34.4126 -34.3126 -34.2480  14.4122  15.8510  16.9329  17.7677
    18.8124  20.7745  30.3252  30.6115

          k =-0.1000 0.8000-0.3000 (   477 PWs)   bands (ev):

   -68.1542 -34.4476 -34.3498 -34.2474  15.0018  15.5066  16.7285  18.1460
    19.1877  22.7961  26.7266  29.5357

          k =-0.2000 0.8000-0.2000 (   469 PWs)   bands (ev):

   -68.1494 -34.4123 -34.4123 -34.2485  15.3106  15.3106  16.5223  18.8138
    18.8138  25.4628  25.4628  27.0657

          k = 0.6000-0.6000 0.4000 (   483 PWs)   bands (ev):

   -68.1763 -34.4164 -34.2530 -34.2530  15.1940  15.3825  15.3825  19.2088
    19.2088  22.5340  28.5694  28.5694

          k = 0.5000-0.5000 0.4000 (   480 PWs)   bands (ev):

   -68.1735 -34.3770 -34.3101 -34.2565  15.2350  15.3300  15.6532  19.2296
    19.2899  24.5397  25.9676  28.2047

          k = 0.0000 0.0000 0.6000 (   478 PWs)   bands (ev):

   -68.1639 -34.3649 -34.3056 -34.3056  14.2544  15.9933  17.5047  17.5047
    18.3857  20.5159  32.1488  32.1488

          k = 0.0000-0.1000 0.7000 (   475 PWs)   bands (ev):

   -68.1493 -34.4172 -34.3417 -34.3137  14.7853  15.3948  17.6529  17.9376
    19.0132  22.1084  28.7630  30.4634

          k = 0.0000 0.8000-0.2000 (   480 PWs)   bands (ev):

   -68.1439 -34.4445 -34.3557 -34.3102  14.9731  15.1304  17.6364  18.0691
    19.3814  24.1916  25.9192  29.7989

          k =-0.1000 0.9000-0.2000 (   476 PWs)   bands (ev):

   -68.1397 -34.4234 -34.3881 -34.3234  14.8976  15.0124  17.7331  18.6471
    19.1674  24.4056  27.4519  27.8447

          k = 0.0000 0.0000 0.8000 (   486 PWs)   bands (ev):

   -68.1363 -34.4010 -34.3791 -34.3791  14.7063  14.9157  18.5813  18.5813
    19.0338  23.8576  28.5870  28.5870

          k = 0.0000 0.9000-0.1000 (   482 PWs)   bands (ev):

   -68.1310 -34.4174 -34.3932 -34.3805  14.6705  14.6890  18.7513  18.8758
    19.3117  26.0778  26.5707  27.8382

          k = 0.0000 0.0000-1.0000 (   490 PWs)   bands (ev):

   -68.1265 -34.4075 -34.4075 -34.4075  14.5183  14.5183  19.2852  19.2852
    19.2852  27.0297  27.0297  27.0297

     the Fermi energy is    17.2135 ev

!    total energy              =    -329.26185831 Ry
     Harris-Foulkes estimate   =    -329.26185810 Ry
     estimated scf accuracy    <          7.4E-09 Ry

     total all-electron energy =     -2545.558394 Ry

     The total energy is the sum of the following terms:

     one-electron contribution =    -114.04096207 Ry
     hartree contribution      =      66.97698888 Ry
     xc contribution           =     -34.79177892 Ry
     ewald contribution        =    -171.25804469 Ry
     one-center paw contrib.   =     -76.14977263 Ry
     smearing contrib. (-TS)   =       0.00171113 Ry

     total magnetization       =     2.11 Bohr mag/cell
     absolute magnetization    =     2.25 Bohr mag/cell

     convergence has been achieved in  11 iterations

     Forces acting on atoms (Ry/au):


     negative rho (up, down):  0.000E+00 1.711E-04
     atom    1 type  1   force =     0.00000000    0.00000000    0.00000000

     Total force =     0.000000     Total SCF correction =     0.000000


     entering subroutine stress ...


     negative rho (up, down):  0.000E+00 1.711E-04
          total   stress  (Ry/bohr**3)                   (kbar)     P= -182.50
  -0.00124063   0.00000000  -0.00000000       -182.50      0.00     -0.00
   0.00000000  -0.00124063   0.00000000          0.00   -182.50      0.00
  -0.00000000   0.00000000  -0.00124063         -0.00      0.00   -182.50


     Writing output data file Fe_bcc.save

     init_run     :      1.82s CPU      1.90s WALL (       1 calls)
     electrons    :     26.87s CPU     27.12s WALL (       1 calls)
     forces       :      0.15s CPU      0.15s WALL (       1 calls)
     stress       :      0.55s CPU      0.56s WALL (       1 calls)

     Called by init_run:
     wfcinit      :      0.72s CPU      0.71s WALL (       1 calls)
     potinit      :      0.52s CPU      0.54s WALL (       1 calls)

     Called by electrons:
     c_bands      :     18.16s CPU     18.20s WALL (      11 calls)
     sum_band     :      3.19s CPU      3.25s WALL (      11 calls)
     v_of_rho     :      0.26s CPU      0.26s WALL (      12 calls)
     newd         :      0.18s CPU      0.19s WALL (      12 calls)
     mix_rho      :      0.03s CPU      0.03s WALL (      11 calls)

     Called by c_bands:
     init_us_2    :      0.40s CPU      0.41s WALL (    2350 calls)
     cegterg      :     17.39s CPU     17.41s WALL (    1034 calls)

     Called by *egterg:
     h_psi        :     14.98s CPU     15.12s WALL (    3279 calls)
     s_psi        :      0.40s CPU      0.32s WALL (    3279 calls)
     g_psi        :      0.09s CPU      0.09s WALL (    2151 calls)
     cdiaghg      :      0.96s CPU      0.97s WALL (    3185 calls)

     Called by h_psi:
     add_vuspsi   :      0.41s CPU      0.35s WALL (    3279 calls)

     General routines
     calbec       :      0.44s CPU      0.45s WALL (    4501 calls)
     fft          :      0.14s CPU      0.14s WALL (     406 calls)
     ffts         :      0.02s CPU      0.02s WALL (      46 calls)
     fftw         :     15.21s CPU     15.40s WALL (   74432 calls)
     interpolate  :      0.03s CPU      0.04s WALL (      46 calls)
     davcio       :      0.00s CPU      0.00s WALL (      94 calls)


     PAW routines
     PAW_pot      :      5.55s CPU      5.69s WALL (      12 calls)
     PAW_symme    :      0.01s CPU      0.01s WALL (      23 calls)

     PWSCF        :    29.93s CPU        30.36s WALL


   This run was terminated on:  10:30:42  11May2015            

=------------------------------------------------------------------------------=
   JOB DONE.
=------------------------------------------------------------------------------=
