
     Program PWSCF v.5.1.2 starts on 11May2015 at 10:14:57 

     This program is part of the open-source Quantum ESPRESSO suite
     for quantum simulation of materials; please cite
         "P. Giannozzi et al., J. Phys.:Condens. Matter 21 395502 (2009);
          URL http://www.quantum-espresso.org", 
     in publications or presentations arising from this work. More details at
     http://www.quantum-espresso.org/quote

     Serial version
     Reading input from Fe_bcc_5.43_7.pw.in

     Current dimensions of program PWSCF are:
     Max number of different atomic species (ntypx) = 10
     Max number of k-points (npk) =  40000
     Max angular momentum in pseudopotentials (lmaxx) =  3
               file Fe.pbe-spn-kjpaw_psl.0.2.1.UPF: wavefunction(s)  3D renormalized

     G-vector sticks info
     --------------------
     sticks:   dense  smooth     PW     G-vecs:    dense   smooth      PW
     Sum         411     333    103                 5425     3805     683

     Generating pointlists ...
     new r_m :   0.3572 (alat units)  1.9398 (a.u.) for type    1


     bravais-lattice index     =            3
     lattice parameter (alat)  =       5.4300  a.u.
     unit-cell volume          =      80.0515 (a.u.)^3
     number of atoms/cell      =            1
     number of atomic types    =            1
     number of electrons       =        16.00
     number of Kohn-Sham states=           12
     kinetic-energy cutoff     =      50.0000  Ry
     charge density cutoff     =     250.0000  Ry
     convergence threshold     =      1.0E-08
     mixing beta               =       0.7000
     number of iterations used =            8  plain     mixing
     Exchange-correlation      =  SLA  PW   PBX  PBC ( 1  4  3  4 0 0)

     celldm(1)=   5.430000  celldm(2)=   0.000000  celldm(3)=   0.000000
     celldm(4)=   0.000000  celldm(5)=   0.000000  celldm(6)=   0.000000

     crystal axes: (cart. coord. in units of alat)
               a(1) = (   0.500000   0.500000   0.500000 )  
               a(2) = (  -0.500000   0.500000   0.500000 )  
               a(3) = (  -0.500000  -0.500000   0.500000 )  

     reciprocal axes: (cart. coord. in units 2 pi/alat)
               b(1) = (  1.000000  0.000000  1.000000 )  
               b(2) = ( -1.000000  1.000000  0.000000 )  
               b(3) = (  0.000000 -1.000000  1.000000 )  


     PseudoPot. # 1 for Fe read from file:
     ./Fe.pbe-spn-kjpaw_psl.0.2.1.UPF
     MD5 check sum: a0a08122d52b112de96d1da1d7dd020f
     Pseudo is Projector augmented-wave + core cor, Zval = 16.0
     Generated using "atomic" code by A. Dal Corso  v.5.0.2 svn rev. 9415
     Shape of augmentation charge: PSQ
     Using radial grid of 1191 points,  6 beta functions with: 
                l(1) =   0
                l(2) =   0
                l(3) =   1
                l(4) =   1
                l(5) =   2
                l(6) =   2
     Q(r) pseudized with 0 coefficients 


     atomic species   valence    mass     pseudopotential
        Fe            16.00    55.85000     Fe( 1.00)

     Starting magnetic structure 
     atomic species   magnetization
        Fe           0.700

     48 Sym. Ops., with inversion, found



   Cartesian axes

     site n.     atom                  positions (alat units)
         1           Fe  tau(   1) = (   0.0000000   0.0000000   0.0000000  )

     number of k points=    40  Marzari-Vanderbilt smearing, width (Ry)=  0.0250
                       cart. coord. in units 2pi/alat
        k(    1) = (   0.0000000   0.0000000   0.0000000), wk =   0.0029155
        k(    2) = (   0.0000000  -0.1428571   0.1428571), wk =   0.0349854
        k(    3) = (   0.0000000  -0.2857143   0.2857143), wk =   0.0349854
        k(    4) = (   0.0000000  -0.4285714   0.4285714), wk =   0.0349854
        k(    5) = (  -0.1428571  -0.1428571   0.2857143), wk =   0.0699708
        k(    6) = (  -0.1428571  -0.2857143   0.4285714), wk =   0.1399417
        k(    7) = (  -0.1428571   0.5714286  -0.4285714), wk =   0.0699708
        k(    8) = (  -0.2857143   0.7142857  -0.4285714), wk =   0.0699708
        k(    9) = (   0.0000000   0.0000000   0.2857143), wk =   0.0174927
        k(   10) = (   0.0000000  -0.1428571   0.4285714), wk =   0.0699708
        k(   11) = (   0.0000000  -0.2857143   0.5714286), wk =   0.0699708
        k(   12) = (  -0.1428571  -0.1428571   0.5714286), wk =   0.0699708
        k(   13) = (  -0.1428571   0.7142857  -0.2857143), wk =   0.0699708
        k(   14) = (  -0.2857143   0.2857143   0.2857143), wk =   0.0233236
        k(   15) = (   0.5714286  -0.5714286   0.2857143), wk =   0.0699708
        k(   16) = (   0.4285714  -0.5714286   0.4285714), wk =   0.0233236
        k(   17) = (   0.0000000   0.0000000   0.5714286), wk =   0.0174927
        k(   18) = (   0.0000000  -0.1428571   0.7142857), wk =   0.0699708
        k(   19) = (  -0.1428571   0.8571429  -0.1428571), wk =   0.0233236
        k(   20) = (   0.0000000   0.0000000   0.8571429), wk =   0.0174927
        k(   21) = (   0.0000000   0.0000000   0.0000000), wk =   0.0029155
        k(   22) = (   0.0000000  -0.1428571   0.1428571), wk =   0.0349854
        k(   23) = (   0.0000000  -0.2857143   0.2857143), wk =   0.0349854
        k(   24) = (   0.0000000  -0.4285714   0.4285714), wk =   0.0349854
        k(   25) = (  -0.1428571  -0.1428571   0.2857143), wk =   0.0699708
        k(   26) = (  -0.1428571  -0.2857143   0.4285714), wk =   0.1399417
        k(   27) = (  -0.1428571   0.5714286  -0.4285714), wk =   0.0699708
        k(   28) = (  -0.2857143   0.7142857  -0.4285714), wk =   0.0699708
        k(   29) = (   0.0000000   0.0000000   0.2857143), wk =   0.0174927
        k(   30) = (   0.0000000  -0.1428571   0.4285714), wk =   0.0699708
        k(   31) = (   0.0000000  -0.2857143   0.5714286), wk =   0.0699708
        k(   32) = (  -0.1428571  -0.1428571   0.5714286), wk =   0.0699708
        k(   33) = (  -0.1428571   0.7142857  -0.2857143), wk =   0.0699708
        k(   34) = (  -0.2857143   0.2857143   0.2857143), wk =   0.0233236
        k(   35) = (   0.5714286  -0.5714286   0.2857143), wk =   0.0699708
        k(   36) = (   0.4285714  -0.5714286   0.4285714), wk =   0.0233236
        k(   37) = (   0.0000000   0.0000000   0.5714286), wk =   0.0174927
        k(   38) = (   0.0000000  -0.1428571   0.7142857), wk =   0.0699708
        k(   39) = (  -0.1428571   0.8571429  -0.1428571), wk =   0.0233236
        k(   40) = (   0.0000000   0.0000000   0.8571429), wk =   0.0174927

     Dense  grid:     5425 G-vectors     FFT dimensions: (  24,  24,  24)

     Smooth grid:     3805 G-vectors     FFT dimensions: (  24,  24,  24)

     Largest allocated arrays     est. size (Mb)     dimensions
        Kohn-Sham Wavefunctions         0.09 Mb     (     488,   12)
        NL pseudopotentials             0.13 Mb     (     488,   18)
        Each V/rho on FFT grid          0.42 Mb     (   13824,   2)
        Each G-vector array             0.04 Mb     (    5425)
        G-vector shells                 0.00 Mb     (      88)
     Largest temporary arrays     est. size (Mb)     dimensions
        Auxiliary wavefunctions         0.36 Mb     (     488,   48)
        Each subspace H/S matrix        0.04 Mb     (      48,   48)
        Each <psi_i|beta_j> matrix      0.00 Mb     (      18,   12)
        Arrays for rho mixing           1.69 Mb     (   13824,    8)

     Check: negative/imaginary core charge=   -0.000432    0.000000

     Initial potential from superposition of free atoms

     starting charge   15.99956, renormalised to   16.00000
     Starting wfc are   13 randomized atomic wfcs

     total cpu time spent up to now is        1.8 secs

     Self-consistent Calculation

     iteration #  1     ecut=    50.00 Ry     beta=0.70
     Davidson diagonalization with overlap
     ethr =  1.00E-02,  avg # of iterations =  3.2

     negative rho (up, down):  0.000E+00 3.507E-04

     Magnetic moment per site:
     atom:    1    charge:   14.2945    magn:    5.7144    constr:    0.0000

     total cpu time spent up to now is        3.3 secs

     total energy              =    -328.98639821 Ry
     Harris-Foulkes estimate   =    -328.06683541 Ry
     estimated scf accuracy    <       1.50378631 Ry

     total magnetization       =     3.87 Bohr mag/cell
     absolute magnetization    =     3.91 Bohr mag/cell

     iteration #  2     ecut=    50.00 Ry     beta=0.70
     Davidson diagonalization with overlap
     ethr =  9.40E-03,  avg # of iterations =  1.2

     negative rho (up, down):  0.000E+00 3.709E-04

     Magnetic moment per site:
     atom:    1    charge:   14.5273    magn:    3.5324    constr:    0.0000

     total cpu time spent up to now is        4.5 secs

     total energy              =    -329.15789320 Ry
     Harris-Foulkes estimate   =    -329.10323413 Ry
     estimated scf accuracy    <       0.35486796 Ry

     total magnetization       =     3.06 Bohr mag/cell
     absolute magnetization    =     3.20 Bohr mag/cell

     iteration #  3     ecut=    50.00 Ry     beta=0.70
     Davidson diagonalization with overlap
     ethr =  2.22E-03,  avg # of iterations =  2.1

     negative rho (up, down):  0.000E+00 3.751E-04

     Magnetic moment per site:
     atom:    1    charge:   14.4109    magn:    2.4603    constr:    0.0000

     total cpu time spent up to now is        5.8 secs

     total energy              =    -329.17998121 Ry
     Harris-Foulkes estimate   =    -329.34702236 Ry
     estimated scf accuracy    <       0.49692650 Ry

     total magnetization       =     2.47 Bohr mag/cell
     absolute magnetization    =     2.63 Bohr mag/cell

     iteration #  4     ecut=    50.00 Ry     beta=0.70
     Davidson diagonalization with overlap
     ethr =  2.22E-03,  avg # of iterations =  2.0

     negative rho (up, down):  0.000E+00 2.337E-04

     Magnetic moment per site:
     atom:    1    charge:   14.4390    magn:    2.2975    constr:    0.0000

     total cpu time spent up to now is        7.1 secs

     total energy              =    -329.25919243 Ry
     Harris-Foulkes estimate   =    -329.25803258 Ry
     estimated scf accuracy    <       0.00201564 Ry

     total magnetization       =     2.30 Bohr mag/cell
     absolute magnetization    =     2.48 Bohr mag/cell

     iteration #  5     ecut=    50.00 Ry     beta=0.70
     Davidson diagonalization with overlap
     ethr =  1.26E-05,  avg # of iterations =  3.3

     negative rho (up, down):  0.000E+00 2.189E-04

     Magnetic moment per site:
     atom:    1    charge:   14.4298    magn:    2.2848    constr:    0.0000

     total cpu time spent up to now is        8.8 secs

     total energy              =    -329.26219675 Ry
     Harris-Foulkes estimate   =    -329.26201621 Ry
     estimated scf accuracy    <       0.00044120 Ry

     total magnetization       =     2.23 Bohr mag/cell
     absolute magnetization    =     2.37 Bohr mag/cell

     iteration #  6     ecut=    50.00 Ry     beta=0.70
     Davidson diagonalization with overlap
     ethr =  2.76E-06,  avg # of iterations =  1.8

     negative rho (up, down):  0.000E+00 1.752E-04

     Magnetic moment per site:
     atom:    1    charge:   14.4248    magn:    2.2359    constr:    0.0000

     total cpu time spent up to now is       10.2 secs

     total energy              =    -329.26230550 Ry
     Harris-Foulkes estimate   =    -329.26235070 Ry
     estimated scf accuracy    <       0.00025211 Ry

     total magnetization       =     2.22 Bohr mag/cell
     absolute magnetization    =     2.34 Bohr mag/cell

     iteration #  7     ecut=    50.00 Ry     beta=0.70
     Davidson diagonalization with overlap
     ethr =  1.58E-06,  avg # of iterations =  1.6

     negative rho (up, down):  0.000E+00 1.956E-04

     Magnetic moment per site:
     atom:    1    charge:   14.4307    magn:    2.2601    constr:    0.0000

     total cpu time spent up to now is       11.4 secs

     total energy              =    -329.26252505 Ry
     Harris-Foulkes estimate   =    -329.26247600 Ry
     estimated scf accuracy    <       0.00002783 Ry

     total magnetization       =     2.20 Bohr mag/cell
     absolute magnetization    =     2.31 Bohr mag/cell

     iteration #  8     ecut=    50.00 Ry     beta=0.70
     Davidson diagonalization with overlap
     ethr =  1.74E-07,  avg # of iterations =  2.0

     negative rho (up, down):  0.000E+00 1.908E-04

     Magnetic moment per site:
     atom:    1    charge:   14.4292    magn:    2.2469    constr:    0.0000

     total cpu time spent up to now is       12.7 secs

     total energy              =    -329.26253825 Ry
     Harris-Foulkes estimate   =    -329.26253791 Ry
     estimated scf accuracy    <       0.00002309 Ry

     total magnetization       =     2.21 Bohr mag/cell
     absolute magnetization    =     2.32 Bohr mag/cell

     iteration #  9     ecut=    50.00 Ry     beta=0.70
     Davidson diagonalization with overlap
     ethr =  1.44E-07,  avg # of iterations =  1.5

     negative rho (up, down):  0.000E+00 1.889E-04

     Magnetic moment per site:
     atom:    1    charge:   14.4283    magn:    2.2442    constr:    0.0000

     total cpu time spent up to now is       13.9 secs

     total energy              =    -329.26254835 Ry
     Harris-Foulkes estimate   =    -329.26254684 Ry
     estimated scf accuracy    <       0.00000139 Ry

     total magnetization       =     2.20 Bohr mag/cell
     absolute magnetization    =     2.31 Bohr mag/cell

     iteration # 10     ecut=    50.00 Ry     beta=0.70
     Davidson diagonalization with overlap
     ethr =  8.70E-09,  avg # of iterations =  2.1

     negative rho (up, down):  0.000E+00 1.887E-04

     Magnetic moment per site:
     atom:    1    charge:   14.4283    magn:    2.2434    constr:    0.0000

     total cpu time spent up to now is       15.2 secs

     total energy              =    -329.26254901 Ry
     Harris-Foulkes estimate   =    -329.26254868 Ry
     estimated scf accuracy    <       0.00000007 Ry

     total magnetization       =     2.20 Bohr mag/cell
     absolute magnetization    =     2.31 Bohr mag/cell

     iteration # 11     ecut=    50.00 Ry     beta=0.70
     Davidson diagonalization with overlap
     ethr =  4.27E-10,  avg # of iterations =  2.9

     negative rho (up, down):  0.000E+00 1.884E-04

     Magnetic moment per site:
     atom:    1    charge:   14.4283    magn:    2.2427    constr:    0.0000

     total cpu time spent up to now is       16.6 secs

     total energy              =    -329.26254913 Ry
     Harris-Foulkes estimate   =    -329.26254907 Ry
     estimated scf accuracy    <       0.00000004 Ry

     total magnetization       =     2.20 Bohr mag/cell
     absolute magnetization    =     2.31 Bohr mag/cell

     iteration # 12     ecut=    50.00 Ry     beta=0.70
     Davidson diagonalization with overlap
     ethr =  2.47E-10,  avg # of iterations =  1.4

     negative rho (up, down):  0.000E+00 1.884E-04

     Magnetic moment per site:
     atom:    1    charge:   14.4283    magn:    2.2424    constr:    0.0000

     total cpu time spent up to now is       17.9 secs

     total energy              =    -329.26254916 Ry
     Harris-Foulkes estimate   =    -329.26254915 Ry
     estimated scf accuracy    <       0.00000001 Ry

     total magnetization       =     2.20 Bohr mag/cell
     absolute magnetization    =     2.31 Bohr mag/cell

     iteration # 13     ecut=    50.00 Ry     beta=0.70
     Davidson diagonalization with overlap
     ethr =  8.05E-11,  avg # of iterations =  2.0

     negative rho (up, down):  0.000E+00 1.883E-04

     Magnetic moment per site:
     atom:    1    charge:   14.4283    magn:    2.2423    constr:    0.0000

     total cpu time spent up to now is       19.1 secs

     End of self-consistent calculation

 ------ SPIN UP ------------


          k = 0.0000 0.0000 0.0000 (   459 PWs)   bands (ev):

   -70.7347 -36.5624 -36.5624 -36.5624   9.0434  15.1614  15.1614  15.1614
    16.1189  16.1189  41.7894  41.7894

          k = 0.0000-0.1429 0.1429 (   475 PWs)   bands (ev):

   -70.7230 -36.6322 -36.5862 -36.5634   9.8443  14.9562  15.1066  15.5800
    15.9810  16.1377  37.5607  40.3323

          k = 0.0000-0.2857 0.2857 (   483 PWs)   bands (ev):

   -70.6956 -36.7840 -36.6379 -36.5643  11.7457  14.5148  15.0378  16.0917
    16.2029  16.6132  30.9949  37.3527

          k = 0.0000-0.4286 0.4286 (   480 PWs)   bands (ev):

   -70.6732 -36.9034 -36.6784 -36.5640  12.5639  14.1789  16.1726  16.2793
    17.1078  17.5671  25.4165  35.5098

          k =-0.1429-0.1429 0.2857 (   482 PWs)   bands (ev):

   -70.7033 -36.7356 -36.6139 -36.5804  11.2669  14.7143  14.7542  15.8936
    16.2632  16.4591  34.2159  35.2833

          k =-0.1429-0.2857 0.4286 (   476 PWs)   bands (ev):

   -70.6780 -36.8498 -36.6747 -36.5858  12.8347  14.3087  14.9448  16.1178
    16.4577  18.0761  28.2912  32.6343

          k =-0.1429 0.5714-0.4286 (   478 PWs)   bands (ev):

   -70.6670 -36.8975 -36.7060 -36.5869  12.9590  14.1884  15.5161  16.2179
    16.8703  19.9749  24.3819  31.7862

          k =-0.2857 0.7143-0.4286 (   474 PWs)   bands (ev):

   -70.6640 -36.8500 -36.7549 -36.6058  13.6786  14.0973  14.6626  16.3048
    16.6010  21.2960  26.1645  27.3187

          k = 0.0000 0.0000 0.2857 (   482 PWs)   bands (ev):

   -70.7116 -36.6474 -36.6103 -36.6103  10.5917  15.2078  15.2078  15.4561
    15.5803  16.3830  37.0274  38.7299

          k = 0.0000-0.1429 0.4286 (   471 PWs)   bands (ev):

   -70.6847 -36.7750 -36.6625 -36.6166  12.3085  14.6371  14.9446  15.7537
    16.5258  16.8342  31.5811  35.8461

          k = 0.0000-0.2857 0.5714 (   480 PWs)   bands (ev):

   -70.6639 -36.8866 -36.7047 -36.6134  12.9772  14.6606  14.7060  15.9905
    17.5110  18.9834  25.7622  33.9067

          k =-0.1429-0.1429 0.5714 (   473 PWs)   bands (ev):

   -70.6622 -36.8404 -36.7296 -36.6404  13.3729  13.9456  15.0447  16.0250
    16.9408  19.0213  29.0783  29.7021

          k =-0.1429 0.7143-0.2857 (   473 PWs)   bands (ev):

   -70.6522 -36.8664 -36.7716 -36.6411  13.4503  14.0432  14.7197  16.3212
    17.2370  22.2002  24.7402  28.5479

          k =-0.2857 0.2857 0.2857 (   477 PWs)   bands (ev):

   -70.6844 -36.8266 -36.6210 -36.6210  12.9574  14.2766  14.2766  16.2042
    16.2042  18.1192  31.6730  31.6730

          k = 0.5714-0.5714 0.2857 (   488 PWs)   bands (ev):

   -70.6699 -36.8530 -36.7014 -36.6280  13.5755  14.0738  14.9271  16.2972
    16.3042  20.7430  26.1947  30.2880

          k = 0.4286-0.5714 0.4286 (   484 PWs)   bands (ev):

   -70.6659 -36.7755 -36.7755 -36.6623  13.9122  14.4098  14.4098  16.3400
    16.3400  24.5479  24.5479  26.4528

          k = 0.0000 0.0000 0.5714 (   474 PWs)   bands (ev):

   -70.6614 -36.7736 -36.7183 -36.7183  13.1288  13.9548  15.8272  15.8272
    16.5461  18.2499  32.3785  32.3785

          k = 0.0000-0.1429 0.7143 (   473 PWs)   bands (ev):

   -70.6427 -36.8477 -36.7627 -36.7239  13.2105  13.4259  15.9106  16.2427
    17.3878  21.4886  26.9736  30.1891

          k =-0.1429 0.8571-0.1429 (   472 PWs)   bands (ev):

   -70.6340 -36.8272 -36.8272 -36.7354  13.0933  13.0933  15.9988  17.1923
    17.1923  25.3572  25.3572  26.6696

          k = 0.0000 0.0000 0.8571 (   486 PWs)   bands (ev):

   -70.6264 -36.8207 -36.8102 -36.8102  12.7734  12.7747  17.1454  17.1454
    17.3442  24.5812  27.6835  27.6835

 ------ SPIN DOWN ----------


          k = 0.0000 0.0000 0.0000 (   459 PWs)   bands (ev):

   -68.0922 -33.9677 -33.9677 -33.9677   9.2373  16.9143  16.9143  16.9143
    19.1533  19.1533  41.5645  41.5645

          k = 0.0000-0.1429 0.1429 (   475 PWs)   bands (ev):

   -68.0793 -34.0450 -33.9935 -33.9686  10.0460  16.6704  16.8495  17.3688
    18.9197  19.1753  37.8786  40.3723

          k = 0.0000-0.2857 0.2857 (   483 PWs)   bands (ev):

   -68.0495 -34.2136 -34.0501 -33.9695  12.1173  16.1516  16.6295  18.5033
    18.7794  19.2630  31.7310  37.4933

          k = 0.0000-0.4286 0.4286 (   480 PWs)   bands (ev):

   -68.0250 -34.3463 -34.0948 -33.9692  13.7132  15.7613  17.4816  18.9035
    19.3755  19.5724  26.5780  35.5963

          k =-0.1429-0.1429 0.2857 (   482 PWs)   bands (ev):

   -68.0578 -34.1599 -34.0241 -33.9871  11.5221  16.4038  16.4655  18.2763
    18.6670  19.3080  34.7545  35.7653

          k =-0.1429-0.2857 0.4286 (   476 PWs)   bands (ev):

   -68.0304 -34.2866 -34.0912 -33.9933  13.6199  15.9262  16.3509  18.7290
    19.3051  19.9147  29.1552  33.1711

          k =-0.1429 0.5714-0.4286 (   478 PWs)   bands (ev):

   -68.0183 -34.3396 -34.1257 -33.9945  14.2809  15.7443  16.9457  18.8772
    19.4177  21.2344  25.6466  32.3094

          k =-0.2857 0.7143-0.4286 (   474 PWs)   bands (ev):

   -68.0152 -34.2866 -34.1806 -34.0152  14.9734  15.7046  16.0928  18.8969
    19.2615  22.6079  27.1166  28.0969

          k = 0.0000 0.0000 0.2857 (   482 PWs)   bands (ev):

   -68.0668 -34.0623 -34.0200 -34.0200  10.8151  16.9201  16.9201  17.3743
    18.2614  19.4528  37.3724  39.1417

          k = 0.0000-0.1429 0.4286 (   471 PWs)   bands (ev):

   -68.0378 -34.2037 -34.0775 -34.0275  12.7694  16.6083  16.6510  17.9803
    18.4048  19.6971  32.3126  36.4112

          k = 0.0000-0.2857 0.5714 (   480 PWs)   bands (ev):

   -68.0150 -34.3271 -34.1239 -34.0239  14.2830  16.2789  16.4985  18.3636
    19.5093  20.7098  26.8523  34.4596

          k =-0.1429-0.1429 0.5714 (   473 PWs)   bands (ev):

   -68.0132 -34.2757 -34.1520 -34.0535  14.4614  15.9695  16.7248  18.0990
    19.0968  20.8707  29.9697  30.3700

          k =-0.1429 0.7143-0.2857 (   473 PWs)   bands (ev):

   -68.0023 -34.3042 -34.1985 -34.0543  15.1500  15.8709  16.3508  18.4628
    19.3255  23.3955  25.8619  29.2817

          k =-0.2857 0.2857 0.2857 (   477 PWs)   bands (ev):

   -68.0373 -34.2606 -34.0323 -34.0323  13.3650  15.8692  15.8692  19.1548
    19.1548  19.8603  32.2532  32.2532

          k = 0.5714-0.5714 0.2857 (   488 PWs)   bands (ev):

   -68.0213 -34.2900 -34.1211 -34.0400  14.7791  15.5473  16.0434  19.1908
    19.3944  22.0296  27.1127  30.8501

          k = 0.4286-0.5714 0.4286 (   484 PWs)   bands (ev):

   -68.0170 -34.2039 -34.2039 -34.0780  15.2698  15.6971  15.6971  19.3756
    19.3756  25.4480  25.4480  27.2853

          k = 0.0000 0.0000 0.5714 (   474 PWs)   bands (ev):

   -68.0125 -34.2025 -34.1391 -34.1391  14.1479  16.3050  17.5395  17.5395
    18.4413  20.4171  32.9540  32.9540

          k = 0.0000-0.1429 0.7143 (   473 PWs)   bands (ev):

   -67.9920 -34.2832 -34.1882 -34.1459  14.9913  15.4696  17.6455  18.0903
    19.3713  22.7295  27.8069  30.6965

          k =-0.1429 0.8571-0.1429 (   472 PWs)   bands (ev):

   -67.9825 -34.2598 -34.2598 -34.1585  15.0930  15.0930  17.7006  19.1451
    19.1451  26.2076  26.2076  27.3066

          k = 0.0000 0.0000 0.8571 (   486 PWs)   bands (ev):

   -67.9742 -34.2525 -34.2404 -34.2404  14.7457  14.8335  19.0585  19.0585
    19.3291  25.2596  28.0559  28.0559

     the Fermi energy is    17.3632 ev

!    total energy              =    -329.26254917 Ry
     Harris-Foulkes estimate   =    -329.26254917 Ry
     estimated scf accuracy    <          1.7E-09 Ry

     total all-electron energy =     -2545.559085 Ry

     The total energy is the sum of the following terms:

     one-electron contribution =    -113.53186683 Ry
     hartree contribution      =      66.79299811 Ry
     xc contribution           =     -34.80128503 Ry
     ewald contribution        =    -171.57343704 Ry
     one-center paw contrib.   =     -76.14997048 Ry
     smearing contrib. (-TS)   =       0.00101209 Ry

     total magnetization       =     2.20 Bohr mag/cell
     absolute magnetization    =     2.31 Bohr mag/cell

     convergence has been achieved in  13 iterations

     Forces acting on atoms (Ry/au):


     negative rho (up, down):  0.000E+00 1.883E-04
     atom    1 type  1   force =     0.00000000    0.00000000    0.00000000

     Total force =     0.000000     Total SCF correction =     0.000000


     entering subroutine stress ...


     negative rho (up, down):  0.000E+00 1.883E-04
          total   stress  (Ry/bohr**3)                   (kbar)     P= -162.50
  -0.00110465  -0.00000000   0.00000000       -162.50     -0.00      0.00
  -0.00000000  -0.00110465   0.00000000         -0.00   -162.50      0.00
   0.00000000   0.00000000  -0.00110465          0.00      0.00   -162.50


     Writing output data file Fe_bcc.save

     init_run     :      1.40s CPU      1.43s WALL (       1 calls)
     electrons    :     17.02s CPU     17.32s WALL (       1 calls)
     forces       :      0.10s CPU      0.11s WALL (       1 calls)
     stress       :      0.38s CPU      0.38s WALL (       1 calls)

     Called by init_run:
     wfcinit      :      0.31s CPU      0.31s WALL (       1 calls)
     potinit      :      0.55s CPU      0.57s WALL (       1 calls)

     Called by electrons:
     c_bands      :      8.65s CPU      8.74s WALL (      13 calls)
     sum_band     :      1.78s CPU      1.81s WALL (      13 calls)
     v_of_rho     :      0.30s CPU      0.31s WALL (      14 calls)
     newd         :      0.22s CPU      0.23s WALL (      14 calls)
     mix_rho      :      0.04s CPU      0.04s WALL (      13 calls)

     Called by c_bands:
     init_us_2    :      0.20s CPU      0.20s WALL (    1160 calls)
     cegterg      :      8.27s CPU      8.35s WALL (     520 calls)

     Called by *egterg:
     h_psi        :      7.08s CPU      7.21s WALL (    1641 calls)
     s_psi        :      0.20s CPU      0.16s WALL (    1641 calls)
     g_psi        :      0.04s CPU      0.04s WALL (    1081 calls)
     cdiaghg      :      0.45s CPU      0.46s WALL (    1601 calls)

     Called by h_psi:
     add_vuspsi   :      0.21s CPU      0.17s WALL (    1641 calls)

     General routines
     calbec       :      0.21s CPU      0.22s WALL (    2241 calls)
     fft          :      0.16s CPU      0.16s WALL (     468 calls)
     ffts         :      0.02s CPU      0.02s WALL (      54 calls)
     fftw         :      7.23s CPU      7.37s WALL (   36174 calls)
     interpolate  :      0.04s CPU      0.04s WALL (      54 calls)
     davcio       :      0.00s CPU      0.00s WALL (      40 calls)


     PAW routines
     PAW_pot      :      6.55s CPU      6.71s WALL (      14 calls)
     PAW_symme    :      0.02s CPU      0.02s WALL (      27 calls)

     PWSCF        :    19.36s CPU        19.74s WALL


   This run was terminated on:  10:15:17  11May2015            

=------------------------------------------------------------------------------=
   JOB DONE.
=------------------------------------------------------------------------------=
