
     Program PWSCF v.5.1.2 starts on 11May2015 at 10:35: 1 

     This program is part of the open-source Quantum ESPRESSO suite
     for quantum simulation of materials; please cite
         "P. Giannozzi et al., J. Phys.:Condens. Matter 21 395502 (2009);
          URL http://www.quantum-espresso.org", 
     in publications or presentations arising from this work. More details at
     http://www.quantum-espresso.org/quote

     Serial version
     Reading input from Fe_bcc_5.42_11.pw.in

     Current dimensions of program PWSCF are:
     Max number of different atomic species (ntypx) = 10
     Max number of k-points (npk) =  40000
     Max angular momentum in pseudopotentials (lmaxx) =  3
               file Fe.pbe-spn-kjpaw_psl.0.2.1.UPF: wavefunction(s)  3D renormalized

     G-vector sticks info
     --------------------
     sticks:   dense  smooth     PW     G-vecs:    dense   smooth      PW
     Sum         411     333    103                 5425     3805     683

     Generating pointlists ...
     new r_m :   0.3572 (alat units)  1.9362 (a.u.) for type    1


     bravais-lattice index     =            3
     lattice parameter (alat)  =       5.4200  a.u.
     unit-cell volume          =      79.6100 (a.u.)^3
     number of atoms/cell      =            1
     number of atomic types    =            1
     number of electrons       =        16.00
     number of Kohn-Sham states=           12
     kinetic-energy cutoff     =      50.0000  Ry
     charge density cutoff     =     250.0000  Ry
     convergence threshold     =      1.0E-08
     mixing beta               =       0.7000
     number of iterations used =            8  plain     mixing
     Exchange-correlation      =  SLA  PW   PBX  PBC ( 1  4  3  4 0 0)

     celldm(1)=   5.420000  celldm(2)=   0.000000  celldm(3)=   0.000000
     celldm(4)=   0.000000  celldm(5)=   0.000000  celldm(6)=   0.000000

     crystal axes: (cart. coord. in units of alat)
               a(1) = (   0.500000   0.500000   0.500000 )  
               a(2) = (  -0.500000   0.500000   0.500000 )  
               a(3) = (  -0.500000  -0.500000   0.500000 )  

     reciprocal axes: (cart. coord. in units 2 pi/alat)
               b(1) = (  1.000000  0.000000  1.000000 )  
               b(2) = ( -1.000000  1.000000  0.000000 )  
               b(3) = (  0.000000 -1.000000  1.000000 )  


     PseudoPot. # 1 for Fe read from file:
     ./Fe.pbe-spn-kjpaw_psl.0.2.1.UPF
     MD5 check sum: a0a08122d52b112de96d1da1d7dd020f
     Pseudo is Projector augmented-wave + core cor, Zval = 16.0
     Generated using "atomic" code by A. Dal Corso  v.5.0.2 svn rev. 9415
     Shape of augmentation charge: PSQ
     Using radial grid of 1191 points,  6 beta functions with: 
                l(1) =   0
                l(2) =   0
                l(3) =   1
                l(4) =   1
                l(5) =   2
                l(6) =   2
     Q(r) pseudized with 0 coefficients 


     atomic species   valence    mass     pseudopotential
        Fe            16.00    55.85000     Fe( 1.00)

     Starting magnetic structure 
     atomic species   magnetization
        Fe           0.700

     48 Sym. Ops., with inversion, found



   Cartesian axes

     site n.     atom                  positions (alat units)
         1           Fe  tau(   1) = (   0.0000000   0.0000000   0.0000000  )

     number of k points=   112  Marzari-Vanderbilt smearing, width (Ry)=  0.0250

     Number of k-points >= 100: set verbosity='high' to print them.

     Dense  grid:     5425 G-vectors     FFT dimensions: (  24,  24,  24)

     Smooth grid:     3805 G-vectors     FFT dimensions: (  24,  24,  24)

     Largest allocated arrays     est. size (Mb)     dimensions
        Kohn-Sham Wavefunctions         0.09 Mb     (     486,   12)
        NL pseudopotentials             0.13 Mb     (     486,   18)
        Each V/rho on FFT grid          0.42 Mb     (   13824,   2)
        Each G-vector array             0.04 Mb     (    5425)
        G-vector shells                 0.00 Mb     (      88)
     Largest temporary arrays     est. size (Mb)     dimensions
        Auxiliary wavefunctions         0.36 Mb     (     486,   48)
        Each subspace H/S matrix        0.04 Mb     (      48,   48)
        Each <psi_i|beta_j> matrix      0.00 Mb     (      18,   12)
        Arrays for rho mixing           1.69 Mb     (   13824,    8)

     Check: negative/imaginary core charge=   -0.000436    0.000000

     Initial potential from superposition of free atoms

     starting charge   15.99956, renormalised to   16.00000
     Starting wfc are   13 randomized atomic wfcs

     total cpu time spent up to now is        2.4 secs

     Self-consistent Calculation

     iteration #  1     ecut=    50.00 Ry     beta=0.70
     Davidson diagonalization with overlap
     ethr =  1.00E-02,  avg # of iterations =  3.2

     negative rho (up, down):  0.000E+00 3.491E-04

     Magnetic moment per site:
     atom:    1    charge:   14.2906    magn:    5.7160    constr:    0.0000

     total cpu time spent up to now is        5.4 secs

     total energy              =    -328.98157073 Ry
     Harris-Foulkes estimate   =    -328.06318249 Ry
     estimated scf accuracy    <       1.50233928 Ry

     total magnetization       =     3.88 Bohr mag/cell
     absolute magnetization    =     3.91 Bohr mag/cell

     iteration #  2     ecut=    50.00 Ry     beta=0.70
     Davidson diagonalization with overlap
     ethr =  9.39E-03,  avg # of iterations =  1.2

     negative rho (up, down):  0.000E+00 3.683E-04

     Magnetic moment per site:
     atom:    1    charge:   14.5226    magn:    3.5161    constr:    0.0000

     total cpu time spent up to now is        7.9 secs

     total energy              =    -329.15961845 Ry
     Harris-Foulkes estimate   =    -329.10166255 Ry
     estimated scf accuracy    <       0.35354082 Ry

     total magnetization       =     3.06 Bohr mag/cell
     absolute magnetization    =     3.19 Bohr mag/cell

     iteration #  3     ecut=    50.00 Ry     beta=0.70
     Davidson diagonalization with overlap
     ethr =  2.21E-03,  avg # of iterations =  2.1

     negative rho (up, down):  0.000E+00 3.759E-04

     Magnetic moment per site:
     atom:    1    charge:   14.4063    magn:    2.4964    constr:    0.0000

     total cpu time spent up to now is       10.6 secs

     total energy              =    -329.18003826 Ry
     Harris-Foulkes estimate   =    -329.34602117 Ry
     estimated scf accuracy    <       0.47807971 Ry

     total magnetization       =     2.55 Bohr mag/cell
     absolute magnetization    =     2.69 Bohr mag/cell

     iteration #  4     ecut=    50.00 Ry     beta=0.70
     Davidson diagonalization with overlap
     ethr =  2.21E-03,  avg # of iterations =  2.0

     negative rho (up, down):  0.000E+00 2.281E-04

     Magnetic moment per site:
     atom:    1    charge:   14.4358    magn:    2.3056    constr:    0.0000

     total cpu time spent up to now is       13.2 secs

     total energy              =    -329.25813694 Ry
     Harris-Foulkes estimate   =    -329.25729773 Ry
     estimated scf accuracy    <       0.00186771 Ry

     total magnetization       =     2.33 Bohr mag/cell
     absolute magnetization    =     2.50 Bohr mag/cell

     iteration #  5     ecut=    50.00 Ry     beta=0.70
     Davidson diagonalization with overlap
     ethr =  1.17E-05,  avg # of iterations =  3.5

     negative rho (up, down):  0.000E+00 2.140E-04

     Magnetic moment per site:
     atom:    1    charge:   14.4288    magn:    2.2660    constr:    0.0000

     total cpu time spent up to now is       17.1 secs

     total energy              =    -329.26139415 Ry
     Harris-Foulkes estimate   =    -329.26114178 Ry
     estimated scf accuracy    <       0.00052495 Ry

     total magnetization       =     2.20 Bohr mag/cell
     absolute magnetization    =     2.35 Bohr mag/cell

     iteration #  6     ecut=    50.00 Ry     beta=0.70
     Davidson diagonalization with overlap
     ethr =  3.28E-06,  avg # of iterations =  1.6

     negative rho (up, down):  0.000E+00 1.417E-04

     Magnetic moment per site:
     atom:    1    charge:   14.4206    magn:    2.1436    constr:    0.0000

     total cpu time spent up to now is       19.8 secs

     total energy              =    -329.26116166 Ry
     Harris-Foulkes estimate   =    -329.26152674 Ry
     estimated scf accuracy    <       0.00021930 Ry

     total magnetization       =     2.17 Bohr mag/cell
     absolute magnetization    =     2.32 Bohr mag/cell

     iteration #  7     ecut=    50.00 Ry     beta=0.70
     Davidson diagonalization with overlap
     ethr =  1.37E-06,  avg # of iterations =  2.5

     negative rho (up, down):  0.000E+00 1.800E-04

     Magnetic moment per site:
     atom:    1    charge:   14.4255    magn:    2.2211    constr:    0.0000

     total cpu time spent up to now is       23.0 secs

     total energy              =    -329.26175898 Ry
     Harris-Foulkes estimate   =    -329.26157289 Ry
     estimated scf accuracy    <       0.00015129 Ry

     total magnetization       =     2.14 Bohr mag/cell
     absolute magnetization    =     2.26 Bohr mag/cell

     iteration #  8     ecut=    50.00 Ry     beta=0.70
     Davidson diagonalization with overlap
     ethr =  9.46E-07,  avg # of iterations =  2.0

     negative rho (up, down):  0.000E+00 1.785E-04

     Magnetic moment per site:
     atom:    1    charge:   14.4261    magn:    2.2154    constr:    0.0000

     total cpu time spent up to now is       25.8 secs

     total energy              =    -329.26183633 Ry
     Harris-Foulkes estimate   =    -329.26182727 Ry
     estimated scf accuracy    <       0.00001529 Ry

     total magnetization       =     2.16 Bohr mag/cell
     absolute magnetization    =     2.29 Bohr mag/cell

     iteration #  9     ecut=    50.00 Ry     beta=0.70
     Davidson diagonalization with overlap
     ethr =  9.55E-08,  avg # of iterations =  2.2

     negative rho (up, down):  0.000E+00 1.783E-04

     Magnetic moment per site:
     atom:    1    charge:   14.4258    magn:    2.2113    constr:    0.0000

     total cpu time spent up to now is       28.8 secs

     total energy              =    -329.26184247 Ry
     Harris-Foulkes estimate   =    -329.26183968 Ry
     estimated scf accuracy    <       0.00000553 Ry

     total magnetization       =     2.15 Bohr mag/cell
     absolute magnetization    =     2.28 Bohr mag/cell

     iteration # 10     ecut=    50.00 Ry     beta=0.70
     Davidson diagonalization with overlap
     ethr =  3.45E-08,  avg # of iterations =  1.3

     negative rho (up, down):  0.000E+00 1.751E-04

     Magnetic moment per site:
     atom:    1    charge:   14.4254    magn:    2.2031    constr:    0.0000

     total cpu time spent up to now is       32.1 secs

     total energy              =    -329.26184408 Ry
     Harris-Foulkes estimate   =    -329.26184333 Ry
     estimated scf accuracy    <       0.00000211 Ry

     total magnetization       =     2.15 Bohr mag/cell
     absolute magnetization    =     2.28 Bohr mag/cell

     iteration # 11     ecut=    50.00 Ry     beta=0.70
     Davidson diagonalization with overlap
     ethr =  1.32E-08,  avg # of iterations =  1.7

     negative rho (up, down):  0.000E+00 1.754E-04

     Magnetic moment per site:
     atom:    1    charge:   14.4254    magn:    2.2034    constr:    0.0000

     total cpu time spent up to now is       34.7 secs

     total energy              =    -329.26184539 Ry
     Harris-Foulkes estimate   =    -329.26184513 Ry
     estimated scf accuracy    <       0.00000003 Ry

     total magnetization       =     2.15 Bohr mag/cell
     absolute magnetization    =     2.28 Bohr mag/cell

     iteration # 12     ecut=    50.00 Ry     beta=0.70
     Davidson diagonalization with overlap
     ethr =  1.83E-10,  avg # of iterations =  2.6

     negative rho (up, down):  0.000E+00 1.757E-04

     Magnetic moment per site:
     atom:    1    charge:   14.4254    magn:    2.2035    constr:    0.0000

     total cpu time spent up to now is       37.9 secs

     total energy              =    -329.26184528 Ry
     Harris-Foulkes estimate   =    -329.26184540 Ry
     estimated scf accuracy    <       0.00000006 Ry

     total magnetization       =     2.15 Bohr mag/cell
     absolute magnetization    =     2.28 Bohr mag/cell

     iteration # 13     ecut=    50.00 Ry     beta=0.70
     Davidson diagonalization with overlap
     ethr =  1.83E-10,  avg # of iterations =  1.2

     negative rho (up, down):  0.000E+00 1.746E-04

     Magnetic moment per site:
     atom:    1    charge:   14.4254    magn:    2.2020    constr:    0.0000

     total cpu time spent up to now is       40.5 secs

     total energy              =    -329.26184534 Ry
     Harris-Foulkes estimate   =    -329.26184529 Ry
     estimated scf accuracy    <       0.00000013 Ry

     total magnetization       =     2.15 Bohr mag/cell
     absolute magnetization    =     2.28 Bohr mag/cell

     iteration # 14     ecut=    50.00 Ry     beta=0.70
     Davidson diagonalization with overlap
     ethr =  1.83E-10,  avg # of iterations =  2.2

     negative rho (up, down):  0.000E+00 1.744E-04

     Magnetic moment per site:
     atom:    1    charge:   14.4254    magn:    2.2015    constr:    0.0000

     total cpu time spent up to now is       43.8 secs

     total energy              =    -329.26184540 Ry
     Harris-Foulkes estimate   =    -329.26184545 Ry
     estimated scf accuracy    <       0.00000002 Ry

     total magnetization       =     2.15 Bohr mag/cell
     absolute magnetization    =     2.27 Bohr mag/cell

     iteration # 15     ecut=    50.00 Ry     beta=0.70
     Davidson diagonalization with overlap
     ethr =  9.92E-11,  avg # of iterations =  1.7

     negative rho (up, down):  0.000E+00 1.751E-04

     Magnetic moment per site:
     atom:    1    charge:   14.4254    magn:    2.2025    constr:    0.0000

     total cpu time spent up to now is       46.4 secs

     total energy              =    -329.26184545 Ry
     Harris-Foulkes estimate   =    -329.26184541 Ry
     estimated scf accuracy    <       0.00000004 Ry

     total magnetization       =     2.15 Bohr mag/cell
     absolute magnetization    =     2.27 Bohr mag/cell

     iteration # 16     ecut=    50.00 Ry     beta=0.70
     Davidson diagonalization with overlap
     ethr =  9.92E-11,  avg # of iterations =  2.0

     negative rho (up, down):  0.000E+00 1.749E-04

     Magnetic moment per site:
     atom:    1    charge:   14.4254    magn:    2.2023    constr:    0.0000

     total cpu time spent up to now is       49.6 secs

     End of self-consistent calculation

     Number of k-points >= 100: set verbosity='high' to print the bands.

     the Fermi energy is    17.4522 ev

!    total energy              =    -329.26184550 Ry
     Harris-Foulkes estimate   =    -329.26184549 Ry
     estimated scf accuracy    <          5.9E-09 Ry

     total all-electron energy =     -2545.558381 Ry

     The total energy is the sum of the following terms:

     one-electron contribution =    -113.03831076 Ry
     hartree contribution      =      66.61876848 Ry
     xc contribution           =     -34.80339266 Ry
     ewald contribution        =    -171.88999319 Ry
     one-center paw contrib.   =     -76.15001067 Ry
     smearing contrib. (-TS)   =       0.00109330 Ry

     total magnetization       =     2.15 Bohr mag/cell
     absolute magnetization    =     2.28 Bohr mag/cell

     convergence has been achieved in  16 iterations

     Forces acting on atoms (Ry/au):


     negative rho (up, down):  0.000E+00 1.749E-04
     atom    1 type  1   force =     0.00000000    0.00000000    0.00000000

     Total force =     0.000000     Total SCF correction =     0.000000


     entering subroutine stress ...


     negative rho (up, down):  0.000E+00 1.749E-04
          total   stress  (Ry/bohr**3)                   (kbar)     P= -155.84
  -0.00105937  -0.00000000   0.00000000       -155.84     -0.00      0.00
  -0.00000000  -0.00105937  -0.00000000         -0.00   -155.84     -0.00
   0.00000000  -0.00000000  -0.00105937          0.00     -0.00   -155.84


     Writing output data file Fe_bcc.save

     init_run     :      1.89s CPU      1.96s WALL (       1 calls)
     electrons    :     45.91s CPU     47.28s WALL (       1 calls)
     forces       :      0.17s CPU      0.18s WALL (       1 calls)
     stress       :      0.63s CPU      0.64s WALL (       1 calls)

     Called by init_run:
     wfcinit      :      0.85s CPU      0.87s WALL (       1 calls)
     potinit      :      0.51s CPU      0.54s WALL (       1 calls)

     Called by electrons:
     c_bands      :     31.89s CPU     32.76s WALL (      16 calls)
     sum_band     :      5.62s CPU      5.85s WALL (      16 calls)
     v_of_rho     :      0.37s CPU      0.38s WALL (      17 calls)
     newd         :      0.27s CPU      0.29s WALL (      17 calls)
     mix_rho      :      0.05s CPU      0.05s WALL (      16 calls)

     Called by c_bands:
     init_us_2    :      0.69s CPU      0.71s WALL (    3920 calls)
     cegterg      :     30.54s CPU     31.35s WALL (    1792 calls)

     Called by *egterg:
     h_psi        :     26.00s CPU     26.92s WALL (    5583 calls)
     s_psi        :      0.69s CPU      0.57s WALL (    5583 calls)
     g_psi        :      0.15s CPU      0.15s WALL (    3679 calls)
     cdiaghg      :      1.62s CPU      1.67s WALL (    5471 calls)

     Called by h_psi:
     add_vuspsi   :      0.73s CPU      0.64s WALL (    5583 calls)

     General routines
     calbec       :      0.78s CPU      0.82s WALL (    7599 calls)
     fft          :      0.19s CPU      0.20s WALL (     561 calls)
     ffts         :      0.02s CPU      0.02s WALL (      66 calls)
     fftw         :     26.44s CPU     27.44s WALL (  127058 calls)
     interpolate  :      0.05s CPU      0.05s WALL (      66 calls)
     davcio       :      0.00s CPU      0.00s WALL (     112 calls)


     PAW routines
     PAW_pot      :      8.18s CPU      8.43s WALL (      17 calls)
     PAW_symme    :      0.02s CPU      0.02s WALL (      33 calls)

     PWSCF        :    49.15s CPU        50.71s WALL


   This run was terminated on:  10:35:52  11May2015            

=------------------------------------------------------------------------------=
   JOB DONE.
=------------------------------------------------------------------------------=
