
     Program PWSCF v.5.1.2 starts on 11May2015 at 10:54:38 

     This program is part of the open-source Quantum ESPRESSO suite
     for quantum simulation of materials; please cite
         "P. Giannozzi et al., J. Phys.:Condens. Matter 21 395502 (2009);
          URL http://www.quantum-espresso.org", 
     in publications or presentations arising from this work. More details at
     http://www.quantum-espresso.org/quote

     Serial version
     Reading input from Fe_bcc_5.46_13.pw.in

     Current dimensions of program PWSCF are:
     Max number of different atomic species (ntypx) = 10
     Max number of k-points (npk) =  40000
     Max angular momentum in pseudopotentials (lmaxx) =  3
               file Fe.pbe-spn-kjpaw_psl.0.2.1.UPF: wavefunction(s)  3D renormalized

     G-vector sticks info
     --------------------
     sticks:   dense  smooth     PW     G-vecs:    dense   smooth      PW
     Sum         411     337    117                 5425     3925     767

     Generating pointlists ...
     new r_m :   0.3572 (alat units)  1.9505 (a.u.) for type    1


     bravais-lattice index     =            3
     lattice parameter (alat)  =       5.4600  a.u.
     unit-cell volume          =      81.3857 (a.u.)^3
     number of atoms/cell      =            1
     number of atomic types    =            1
     number of electrons       =        16.00
     number of Kohn-Sham states=           12
     kinetic-energy cutoff     =      50.0000  Ry
     charge density cutoff     =     250.0000  Ry
     convergence threshold     =      1.0E-08
     mixing beta               =       0.7000
     number of iterations used =            8  plain     mixing
     Exchange-correlation      =  SLA  PW   PBX  PBC ( 1  4  3  4 0 0)

     celldm(1)=   5.460000  celldm(2)=   0.000000  celldm(3)=   0.000000
     celldm(4)=   0.000000  celldm(5)=   0.000000  celldm(6)=   0.000000

     crystal axes: (cart. coord. in units of alat)
               a(1) = (   0.500000   0.500000   0.500000 )  
               a(2) = (  -0.500000   0.500000   0.500000 )  
               a(3) = (  -0.500000  -0.500000   0.500000 )  

     reciprocal axes: (cart. coord. in units 2 pi/alat)
               b(1) = (  1.000000  0.000000  1.000000 )  
               b(2) = ( -1.000000  1.000000  0.000000 )  
               b(3) = (  0.000000 -1.000000  1.000000 )  


     PseudoPot. # 1 for Fe read from file:
     ./Fe.pbe-spn-kjpaw_psl.0.2.1.UPF
     MD5 check sum: a0a08122d52b112de96d1da1d7dd020f
     Pseudo is Projector augmented-wave + core cor, Zval = 16.0
     Generated using "atomic" code by A. Dal Corso  v.5.0.2 svn rev. 9415
     Shape of augmentation charge: PSQ
     Using radial grid of 1191 points,  6 beta functions with: 
                l(1) =   0
                l(2) =   0
                l(3) =   1
                l(4) =   1
                l(5) =   2
                l(6) =   2
     Q(r) pseudized with 0 coefficients 


     atomic species   valence    mass     pseudopotential
        Fe            16.00    55.85000     Fe( 1.00)

     Starting magnetic structure 
     atomic species   magnetization
        Fe           0.700

     48 Sym. Ops., with inversion, found



   Cartesian axes

     site n.     atom                  positions (alat units)
         1           Fe  tau(   1) = (   0.0000000   0.0000000   0.0000000  )

     number of k points=   168  Marzari-Vanderbilt smearing, width (Ry)=  0.0250

     Number of k-points >= 100: set verbosity='high' to print them.

     Dense  grid:     5425 G-vectors     FFT dimensions: (  24,  24,  24)

     Smooth grid:     3925 G-vectors     FFT dimensions: (  24,  24,  24)

     Largest allocated arrays     est. size (Mb)     dimensions
        Kohn-Sham Wavefunctions         0.09 Mb     (     496,   12)
        NL pseudopotentials             0.14 Mb     (     496,   18)
        Each V/rho on FFT grid          0.42 Mb     (   13824,   2)
        Each G-vector array             0.04 Mb     (    5425)
        G-vector shells                 0.00 Mb     (      88)
     Largest temporary arrays     est. size (Mb)     dimensions
        Auxiliary wavefunctions         0.36 Mb     (     496,   48)
        Each subspace H/S matrix        0.04 Mb     (      48,   48)
        Each <psi_i|beta_j> matrix      0.00 Mb     (      18,   12)
        Arrays for rho mixing           1.69 Mb     (   13824,    8)

     Check: negative/imaginary core charge=   -0.000416    0.000000

     Initial potential from superposition of free atoms

     starting charge   15.99956, renormalised to   16.00000
     Starting wfc are   13 randomized atomic wfcs

     total cpu time spent up to now is        2.7 secs

     Self-consistent Calculation

     iteration #  1     ecut=    50.00 Ry     beta=0.70
     Davidson diagonalization with overlap
     ethr =  1.00E-02,  avg # of iterations =  3.1

     negative rho (up, down):  0.000E+00 3.628E-04

     Magnetic moment per site:
     atom:    1    charge:   14.3062    magn:    5.7217    constr:    0.0000

     total cpu time spent up to now is        7.1 secs

     total energy              =    -328.98837039 Ry
     Harris-Foulkes estimate   =    -328.07089170 Ry
     estimated scf accuracy    <       1.50006147 Ry

     total magnetization       =     3.87 Bohr mag/cell
     absolute magnetization    =     3.91 Bohr mag/cell

     iteration #  2     ecut=    50.00 Ry     beta=0.70
     Davidson diagonalization with overlap
     ethr =  9.38E-03,  avg # of iterations =  1.2

     negative rho (up, down):  0.000E+00 3.820E-04

     Magnetic moment per site:
     atom:    1    charge:   14.5392    magn:    3.5433    constr:    0.0000

     total cpu time spent up to now is       10.6 secs

     total energy              =    -329.15762338 Ry
     Harris-Foulkes estimate   =    -329.10512284 Ry
     estimated scf accuracy    <       0.35840238 Ry

     total magnetization       =     3.06 Bohr mag/cell
     absolute magnetization    =     3.20 Bohr mag/cell

     iteration #  3     ecut=    50.00 Ry     beta=0.70
     Davidson diagonalization with overlap
     ethr =  2.24E-03,  avg # of iterations =  2.1

     negative rho (up, down):  0.000E+00 3.972E-04

     Magnetic moment per site:
     atom:    1    charge:   14.4222    magn:    2.5322    constr:    0.0000

     total cpu time spent up to now is       14.3 secs

     total energy              =    -329.17673769 Ry
     Harris-Foulkes estimate   =    -329.34862823 Ry
     estimated scf accuracy    <       0.48983844 Ry

     total magnetization       =     2.61 Bohr mag/cell
     absolute magnetization    =     2.75 Bohr mag/cell

     iteration #  4     ecut=    50.00 Ry     beta=0.70
     Davidson diagonalization with overlap
     ethr =  2.24E-03,  avg # of iterations =  2.0

     negative rho (up, down):  0.000E+00 2.564E-04

     Magnetic moment per site:
     atom:    1    charge:   14.4537    magn:    2.3871    constr:    0.0000

     total cpu time spent up to now is       18.2 secs

     total energy              =    -329.25720892 Ry
     Harris-Foulkes estimate   =    -329.25647437 Ry
     estimated scf accuracy    <       0.00154935 Ry

     total magnetization       =     2.38 Bohr mag/cell
     absolute magnetization    =     2.56 Bohr mag/cell

     iteration #  5     ecut=    50.00 Ry     beta=0.70
     Davidson diagonalization with overlap
     ethr =  9.68E-06,  avg # of iterations =  3.5

     negative rho (up, down):  0.000E+00 2.533E-04

     Magnetic moment per site:
     atom:    1    charge:   14.4509    magn:    2.3649    constr:    0.0000

     total cpu time spent up to now is       23.1 secs

     total energy              =    -329.26017110 Ry
     Harris-Foulkes estimate   =    -329.25991196 Ry
     estimated scf accuracy    <       0.00054741 Ry

     total magnetization       =     2.26 Bohr mag/cell
     absolute magnetization    =     2.42 Bohr mag/cell

     iteration #  6     ecut=    50.00 Ry     beta=0.70
     Davidson diagonalization with overlap
     ethr =  3.42E-06,  avg # of iterations =  1.1

     negative rho (up, down):  0.000E+00 1.682E-04

     Magnetic moment per site:
     atom:    1    charge:   14.4431    magn:    2.1583    constr:    0.0000

     total cpu time spent up to now is       26.4 secs

     total energy              =    -329.25950993 Ry
     Harris-Foulkes estimate   =    -329.26022260 Ry
     estimated scf accuracy    <       0.00041329 Ry

     total magnetization       =     2.24 Bohr mag/cell
     absolute magnetization    =     2.40 Bohr mag/cell

     iteration #  7     ecut=    50.00 Ry     beta=0.70
     Davidson diagonalization with overlap
     ethr =  2.58E-06,  avg # of iterations =  2.1

     negative rho (up, down):  0.000E+00 1.897E-04

     Magnetic moment per site:
     atom:    1    charge:   14.4427    magn:    2.2162    constr:    0.0000

     total cpu time spent up to now is       30.4 secs

     total energy              =    -329.26084613 Ry
     Harris-Foulkes estimate   =    -329.26048474 Ry
     estimated scf accuracy    <       0.00005288 Ry

     total magnetization       =     2.13 Bohr mag/cell
     absolute magnetization    =     2.26 Bohr mag/cell

     iteration #  8     ecut=    50.00 Ry     beta=0.70
     Davidson diagonalization with overlap
     ethr =  3.30E-07,  avg # of iterations =  1.7

     negative rho (up, down):  0.000E+00 1.856E-04

     Magnetic moment per site:
     atom:    1    charge:   14.4433    magn:    2.2046    constr:    0.0000

     total cpu time spent up to now is       34.0 secs

     total energy              =    -329.26088806 Ry
     Harris-Foulkes estimate   =    -329.26087226 Ry
     estimated scf accuracy    <       0.00001026 Ry

     total magnetization       =     2.15 Bohr mag/cell
     absolute magnetization    =     2.29 Bohr mag/cell

     iteration #  9     ecut=    50.00 Ry     beta=0.70
     Davidson diagonalization with overlap
     ethr =  6.41E-08,  avg # of iterations =  1.9

     negative rho (up, down):  0.000E+00 1.855E-04

     Magnetic moment per site:
     atom:    1    charge:   14.4434    magn:    2.1990    constr:    0.0000

     total cpu time spent up to now is       37.7 secs

     total energy              =    -329.26090081 Ry
     Harris-Foulkes estimate   =    -329.26089580 Ry
     estimated scf accuracy    <       0.00000463 Ry

     total magnetization       =     2.14 Bohr mag/cell
     absolute magnetization    =     2.28 Bohr mag/cell

     iteration # 10     ecut=    50.00 Ry     beta=0.70
     Davidson diagonalization with overlap
     ethr =  2.89E-08,  avg # of iterations =  2.1

     negative rho (up, down):  0.000E+00 1.798E-04

     Magnetic moment per site:
     atom:    1    charge:   14.4430    magn:    2.1829    constr:    0.0000

     total cpu time spent up to now is       41.3 secs

     total energy              =    -329.26089791 Ry
     Harris-Foulkes estimate   =    -329.26090317 Ry
     estimated scf accuracy    <       0.00000174 Ry

     total magnetization       =     2.14 Bohr mag/cell
     absolute magnetization    =     2.27 Bohr mag/cell

     iteration # 11     ecut=    50.00 Ry     beta=0.70
     Davidson diagonalization with overlap
     ethr =  1.09E-08,  avg # of iterations =  2.0

     negative rho (up, down):  0.000E+00 1.815E-04

     Magnetic moment per site:
     atom:    1    charge:   14.4431    magn:    2.1870    constr:    0.0000

     total cpu time spent up to now is       45.4 secs

     total energy              =    -329.26090689 Ry
     Harris-Foulkes estimate   =    -329.26090333 Ry
     estimated scf accuracy    <       0.00000059 Ry

     total magnetization       =     2.13 Bohr mag/cell
     absolute magnetization    =     2.26 Bohr mag/cell

     iteration # 12     ecut=    50.00 Ry     beta=0.70
     Davidson diagonalization with overlap
     ethr =  3.69E-09,  avg # of iterations =  1.7

     negative rho (up, down):  0.000E+00 1.828E-04

     Magnetic moment per site:
     atom:    1    charge:   14.4431    magn:    2.1904    constr:    0.0000

     total cpu time spent up to now is       48.8 secs

     total energy              =    -329.26090638 Ry
     Harris-Foulkes estimate   =    -329.26090706 Ry
     estimated scf accuracy    <       0.00000003 Ry

     total magnetization       =     2.13 Bohr mag/cell
     absolute magnetization    =     2.26 Bohr mag/cell

     iteration # 13     ecut=    50.00 Ry     beta=0.70
     Davidson diagonalization with overlap
     ethr =  1.79E-10,  avg # of iterations =  2.6

     negative rho (up, down):  0.000E+00 1.819E-04

     Magnetic moment per site:
     atom:    1    charge:   14.4431    magn:    2.1878    constr:    0.0000

     total cpu time spent up to now is       53.0 secs

     total energy              =    -329.26090697 Ry
     Harris-Foulkes estimate   =    -329.26090659 Ry
     estimated scf accuracy    <       0.00000028 Ry

     total magnetization       =     2.13 Bohr mag/cell
     absolute magnetization    =     2.27 Bohr mag/cell

     iteration # 14     ecut=    50.00 Ry     beta=0.70
     Davidson diagonalization with overlap
     ethr =  1.79E-10,  avg # of iterations =  2.2

     negative rho (up, down):  0.000E+00 1.818E-04

     Magnetic moment per site:
     atom:    1    charge:   14.4431    magn:    2.1875    constr:    0.0000

     total cpu time spent up to now is       57.2 secs

     End of self-consistent calculation

     Number of k-points >= 100: set verbosity='high' to print the bands.

     the Fermi energy is    16.9668 ev

!    total energy              =    -329.26090718 Ry
     Harris-Foulkes estimate   =    -329.26090715 Ry
     estimated scf accuracy    <          7.9E-09 Ry

     total all-electron energy =     -2545.557443 Ry

     The total energy is the sum of the following terms:

     one-electron contribution =    -115.04992082 Ry
     hartree contribution      =      67.35464673 Ry
     xc contribution           =     -34.78694586 Ry
     ewald contribution        =    -170.63072585 Ry
     one-center paw contrib.   =     -76.14939887 Ry
     smearing contrib. (-TS)   =       0.00143750 Ry

     total magnetization       =     2.13 Bohr mag/cell
     absolute magnetization    =     2.26 Bohr mag/cell

     convergence has been achieved in  14 iterations

     Forces acting on atoms (Ry/au):


     negative rho (up, down):  0.000E+00 1.818E-04
     atom    1 type  1   force =     0.00000000    0.00000000    0.00000000

     Total force =     0.000000     Total SCF correction =     0.000000


     entering subroutine stress ...


     negative rho (up, down):  0.000E+00 1.818E-04
          total   stress  (Ry/bohr**3)                   (kbar)     P= -194.66
  -0.00132331   0.00000000  -0.00000000       -194.66      0.00     -0.00
   0.00000000  -0.00132331   0.00000000          0.00   -194.66      0.00
  -0.00000000   0.00000000  -0.00132331         -0.00      0.00   -194.66


     Writing output data file Fe_bcc.save

     init_run     :      2.27s CPU      2.31s WALL (       1 calls)
     electrons    :     54.27s CPU     54.52s WALL (       1 calls)
     forces       :      0.19s CPU      0.20s WALL (       1 calls)
     stress       :      0.81s CPU      0.82s WALL (       1 calls)

     Called by init_run:
     wfcinit      :      1.28s CPU      1.29s WALL (       1 calls)
     potinit      :      0.49s CPU      0.51s WALL (       1 calls)

     Called by electrons:
     c_bands      :     40.40s CPU     40.41s WALL (      14 calls)
     sum_band     :      6.82s CPU      6.89s WALL (      14 calls)
     v_of_rho     :      0.32s CPU      0.32s WALL (      15 calls)
     newd         :      0.22s CPU      0.23s WALL (      15 calls)
     mix_rho      :      0.04s CPU      0.04s WALL (      14 calls)

     Called by c_bands:
     init_us_2    :      0.89s CPU      0.89s WALL (    5208 calls)
     cegterg      :     38.64s CPU     38.61s WALL (    2352 calls)

     Called by *egterg:
     h_psi        :     33.01s CPU     33.24s WALL (    7459 calls)
     s_psi        :      0.89s CPU      0.72s WALL (    7459 calls)
     g_psi        :      0.20s CPU      0.20s WALL (    4939 calls)
     cdiaghg      :      2.10s CPU      2.12s WALL (    7291 calls)

     Called by h_psi:
     add_vuspsi   :      0.89s CPU      0.76s WALL (    7459 calls)

     General routines
     calbec       :      0.95s CPU      0.96s WALL (   10147 calls)
     fft          :      0.17s CPU      0.17s WALL (     499 calls)
     ffts         :      0.02s CPU      0.02s WALL (      58 calls)
     fftw         :     33.55s CPU     33.83s WALL (  169366 calls)
     interpolate  :      0.04s CPU      0.04s WALL (      58 calls)
     davcio       :      0.00s CPU      0.01s WALL (     168 calls)


     PAW routines
     PAW_pot      :      6.93s CPU      7.09s WALL (      15 calls)
     PAW_symme    :      0.02s CPU      0.02s WALL (      29 calls)

     PWSCF        :    58.13s CPU        58.53s WALL


   This run was terminated on:  10:55:37  11May2015            

=------------------------------------------------------------------------------=
   JOB DONE.
=------------------------------------------------------------------------------=
