
     Program PWSCF v.5.1.2 starts on 11May2015 at 10:17:29 

     This program is part of the open-source Quantum ESPRESSO suite
     for quantum simulation of materials; please cite
         "P. Giannozzi et al., J. Phys.:Condens. Matter 21 395502 (2009);
          URL http://www.quantum-espresso.org", 
     in publications or presentations arising from this work. More details at
     http://www.quantum-espresso.org/quote

     Serial version
     Reading input from Fe_bcc_5.4_8.pw.in

     Current dimensions of program PWSCF are:
     Max number of different atomic species (ntypx) = 10
     Max number of k-points (npk) =  40000
     Max angular momentum in pseudopotentials (lmaxx) =  3
               file Fe.pbe-spn-kjpaw_psl.0.2.1.UPF: wavefunction(s)  3D renormalized

     G-vector sticks info
     --------------------
     sticks:   dense  smooth     PW     G-vecs:    dense   smooth      PW
     Sum         411     333    117                 5281     3781     767

     Generating pointlists ...
     new r_m :   0.3572 (alat units)  1.9291 (a.u.) for type    1


     bravais-lattice index     =            3
     lattice parameter (alat)  =       5.4000  a.u.
     unit-cell volume          =      78.7320 (a.u.)^3
     number of atoms/cell      =            1
     number of atomic types    =            1
     number of electrons       =        16.00
     number of Kohn-Sham states=           12
     kinetic-energy cutoff     =      50.0000  Ry
     charge density cutoff     =     250.0000  Ry
     convergence threshold     =      1.0E-08
     mixing beta               =       0.7000
     number of iterations used =            8  plain     mixing
     Exchange-correlation      =  SLA  PW   PBX  PBC ( 1  4  3  4 0 0)

     celldm(1)=   5.400000  celldm(2)=   0.000000  celldm(3)=   0.000000
     celldm(4)=   0.000000  celldm(5)=   0.000000  celldm(6)=   0.000000

     crystal axes: (cart. coord. in units of alat)
               a(1) = (   0.500000   0.500000   0.500000 )  
               a(2) = (  -0.500000   0.500000   0.500000 )  
               a(3) = (  -0.500000  -0.500000   0.500000 )  

     reciprocal axes: (cart. coord. in units 2 pi/alat)
               b(1) = (  1.000000  0.000000  1.000000 )  
               b(2) = ( -1.000000  1.000000  0.000000 )  
               b(3) = (  0.000000 -1.000000  1.000000 )  


     PseudoPot. # 1 for Fe read from file:
     ./Fe.pbe-spn-kjpaw_psl.0.2.1.UPF
     MD5 check sum: a0a08122d52b112de96d1da1d7dd020f
     Pseudo is Projector augmented-wave + core cor, Zval = 16.0
     Generated using "atomic" code by A. Dal Corso  v.5.0.2 svn rev. 9415
     Shape of augmentation charge: PSQ
     Using radial grid of 1191 points,  6 beta functions with: 
                l(1) =   0
                l(2) =   0
                l(3) =   1
                l(4) =   1
                l(5) =   2
                l(6) =   2
     Q(r) pseudized with 0 coefficients 


     atomic species   valence    mass     pseudopotential
        Fe            16.00    55.85000     Fe( 1.00)

     Starting magnetic structure 
     atomic species   magnetization
        Fe           0.700

     48 Sym. Ops., with inversion, found



   Cartesian axes

     site n.     atom                  positions (alat units)
         1           Fe  tau(   1) = (   0.0000000   0.0000000   0.0000000  )

     number of k points=    58  Marzari-Vanderbilt smearing, width (Ry)=  0.0250
                       cart. coord. in units 2pi/alat
        k(    1) = (   0.0000000   0.0000000   0.0000000), wk =   0.0019531
        k(    2) = (   0.0000000  -0.1250000   0.1250000), wk =   0.0234375
        k(    3) = (   0.0000000  -0.2500000   0.2500000), wk =   0.0234375
        k(    4) = (   0.0000000  -0.3750000   0.3750000), wk =   0.0234375
        k(    5) = (   0.0000000   0.5000000  -0.5000000), wk =   0.0117188
        k(    6) = (  -0.1250000  -0.1250000   0.2500000), wk =   0.0468750
        k(    7) = (  -0.1250000  -0.2500000   0.3750000), wk =   0.0937500
        k(    8) = (  -0.1250000   0.6250000  -0.5000000), wk =   0.0937500
        k(    9) = (  -0.2500000   0.7500000  -0.5000000), wk =   0.0468750
        k(   10) = (  -0.2500000   0.6250000  -0.3750000), wk =   0.0468750
        k(   11) = (   0.0000000   0.0000000   0.2500000), wk =   0.0117188
        k(   12) = (   0.0000000  -0.1250000   0.3750000), wk =   0.0468750
        k(   13) = (   0.0000000  -0.2500000   0.5000000), wk =   0.0468750
        k(   14) = (   0.0000000   0.6250000  -0.3750000), wk =   0.0234375
        k(   15) = (  -0.1250000  -0.1250000   0.5000000), wk =   0.0468750
        k(   16) = (  -0.1250000   0.7500000  -0.3750000), wk =   0.0937500
        k(   17) = (  -0.2500000   0.2500000   0.2500000), wk =   0.0156250
        k(   18) = (  -0.2500000   0.7500000  -0.2500000), wk =   0.0156250
        k(   19) = (   0.6250000  -0.6250000   0.2500000), wk =   0.0468750
        k(   20) = (   0.5000000  -0.5000000   0.2500000), wk =   0.0234375
        k(   21) = (   0.5000000  -0.6250000   0.3750000), wk =   0.0468750
        k(   22) = (   0.0000000   0.0000000   0.5000000), wk =   0.0117188
        k(   23) = (   0.0000000  -0.1250000   0.6250000), wk =   0.0468750
        k(   24) = (   0.0000000   0.7500000  -0.2500000), wk =   0.0234375
        k(   25) = (  -0.1250000   0.8750000  -0.2500000), wk =   0.0468750
        k(   26) = (   0.5000000  -0.5000000   0.5000000), wk =   0.0039062
        k(   27) = (   0.0000000   0.0000000   0.7500000), wk =   0.0117188
        k(   28) = (   0.0000000   0.8750000  -0.1250000), wk =   0.0234375
        k(   29) = (   0.0000000   0.0000000  -1.0000000), wk =   0.0019531
        k(   30) = (   0.0000000   0.0000000   0.0000000), wk =   0.0019531
        k(   31) = (   0.0000000  -0.1250000   0.1250000), wk =   0.0234375
        k(   32) = (   0.0000000  -0.2500000   0.2500000), wk =   0.0234375
        k(   33) = (   0.0000000  -0.3750000   0.3750000), wk =   0.0234375
        k(   34) = (   0.0000000   0.5000000  -0.5000000), wk =   0.0117188
        k(   35) = (  -0.1250000  -0.1250000   0.2500000), wk =   0.0468750
        k(   36) = (  -0.1250000  -0.2500000   0.3750000), wk =   0.0937500
        k(   37) = (  -0.1250000   0.6250000  -0.5000000), wk =   0.0937500
        k(   38) = (  -0.2500000   0.7500000  -0.5000000), wk =   0.0468750
        k(   39) = (  -0.2500000   0.6250000  -0.3750000), wk =   0.0468750
        k(   40) = (   0.0000000   0.0000000   0.2500000), wk =   0.0117188
        k(   41) = (   0.0000000  -0.1250000   0.3750000), wk =   0.0468750
        k(   42) = (   0.0000000  -0.2500000   0.5000000), wk =   0.0468750
        k(   43) = (   0.0000000   0.6250000  -0.3750000), wk =   0.0234375
        k(   44) = (  -0.1250000  -0.1250000   0.5000000), wk =   0.0468750
        k(   45) = (  -0.1250000   0.7500000  -0.3750000), wk =   0.0937500
        k(   46) = (  -0.2500000   0.2500000   0.2500000), wk =   0.0156250
        k(   47) = (  -0.2500000   0.7500000  -0.2500000), wk =   0.0156250
        k(   48) = (   0.6250000  -0.6250000   0.2500000), wk =   0.0468750
        k(   49) = (   0.5000000  -0.5000000   0.2500000), wk =   0.0234375
        k(   50) = (   0.5000000  -0.6250000   0.3750000), wk =   0.0468750
        k(   51) = (   0.0000000   0.0000000   0.5000000), wk =   0.0117188
        k(   52) = (   0.0000000  -0.1250000   0.6250000), wk =   0.0468750
        k(   53) = (   0.0000000   0.7500000  -0.2500000), wk =   0.0234375
        k(   54) = (  -0.1250000   0.8750000  -0.2500000), wk =   0.0468750
        k(   55) = (   0.5000000  -0.5000000   0.5000000), wk =   0.0039062
        k(   56) = (   0.0000000   0.0000000   0.7500000), wk =   0.0117188
        k(   57) = (   0.0000000   0.8750000  -0.1250000), wk =   0.0234375
        k(   58) = (   0.0000000   0.0000000  -1.0000000), wk =   0.0019531

     Dense  grid:     5281 G-vectors     FFT dimensions: (  24,  24,  24)

     Smooth grid:     3781 G-vectors     FFT dimensions: (  24,  24,  24)

     Largest allocated arrays     est. size (Mb)     dimensions
        Kohn-Sham Wavefunctions         0.09 Mb     (     484,   12)
        NL pseudopotentials             0.13 Mb     (     484,   18)
        Each V/rho on FFT grid          0.42 Mb     (   13824,   2)
        Each G-vector array             0.04 Mb     (    5281)
        G-vector shells                 0.00 Mb     (      87)
     Largest temporary arrays     est. size (Mb)     dimensions
        Auxiliary wavefunctions         0.35 Mb     (     484,   48)
        Each subspace H/S matrix        0.04 Mb     (      48,   48)
        Each <psi_i|beta_j> matrix      0.00 Mb     (      18,   12)
        Arrays for rho mixing           1.69 Mb     (   13824,    8)

     Check: negative/imaginary core charge=   -0.000421    0.000000

     Initial potential from superposition of free atoms

     starting charge   15.99956, renormalised to   16.00000
     Starting wfc are   13 randomized atomic wfcs

     total cpu time spent up to now is        1.9 secs

     Self-consistent Calculation

     iteration #  1     ecut=    50.00 Ry     beta=0.70
     Davidson diagonalization with overlap
     ethr =  1.00E-02,  avg # of iterations =  3.2

     negative rho (up, down):  0.000E+00 3.452E-04

     Magnetic moment per site:
     atom:    1    charge:   14.2821    magn:    5.7182    constr:    0.0000

     total cpu time spent up to now is        4.0 secs

     total energy              =    -328.97517897 Ry
     Harris-Foulkes estimate   =    -328.05888064 Ry
     estimated scf accuracy    <       1.50241842 Ry

     total magnetization       =     3.90 Bohr mag/cell
     absolute magnetization    =     3.92 Bohr mag/cell

     iteration #  2     ecut=    50.00 Ry     beta=0.70
     Davidson diagonalization with overlap
     ethr =  9.39E-03,  avg # of iterations =  1.3

     negative rho (up, down):  0.000E+00 3.629E-04

     Magnetic moment per site:
     atom:    1    charge:   14.5141    magn:    3.5141    constr:    0.0000

     total cpu time spent up to now is        5.6 secs

     total energy              =    -329.15639523 Ry
     Harris-Foulkes estimate   =    -329.09766207 Ry
     estimated scf accuracy    <       0.35401541 Ry

     total magnetization       =     3.07 Bohr mag/cell
     absolute magnetization    =     3.18 Bohr mag/cell

     iteration #  3     ecut=    50.00 Ry     beta=0.70
     Davidson diagonalization with overlap
     ethr =  2.21E-03,  avg # of iterations =  2.1

     negative rho (up, down):  0.000E+00 3.694E-04

     Magnetic moment per site:
     atom:    1    charge:   14.3976    magn:    2.4953    constr:    0.0000

     total cpu time spent up to now is        7.3 secs

     total energy              =    -329.18022303 Ry
     Harris-Foulkes estimate   =    -329.34509506 Ry
     estimated scf accuracy    <       0.47376150 Ry

     total magnetization       =     2.56 Bohr mag/cell
     absolute magnetization    =     2.69 Bohr mag/cell

     iteration #  4     ecut=    50.00 Ry     beta=0.70
     Davidson diagonalization with overlap
     ethr =  2.21E-03,  avg # of iterations =  2.0

     negative rho (up, down):  0.000E+00 2.198E-04

     Magnetic moment per site:
     atom:    1    charge:   14.4231    magn:    2.2932    constr:    0.0000

     total cpu time spent up to now is        9.1 secs

     total energy              =    -329.25803433 Ry
     Harris-Foulkes estimate   =    -329.25734243 Ry
     estimated scf accuracy    <       0.00197099 Ry

     total magnetization       =     2.31 Bohr mag/cell
     absolute magnetization    =     2.49 Bohr mag/cell

     iteration #  5     ecut=    50.00 Ry     beta=0.70
     Davidson diagonalization with overlap
     ethr =  1.23E-05,  avg # of iterations =  3.4

     negative rho (up, down):  0.000E+00 2.044E-04

     Magnetic moment per site:
     atom:    1    charge:   14.4175    magn:    2.2667    constr:    0.0000

     total cpu time spent up to now is       11.3 secs

     total energy              =    -329.26103409 Ry
     Harris-Foulkes estimate   =    -329.26089997 Ry
     estimated scf accuracy    <       0.00061795 Ry

     total magnetization       =     2.19 Bohr mag/cell
     absolute magnetization    =     2.36 Bohr mag/cell

     iteration #  6     ecut=    50.00 Ry     beta=0.70
     Davidson diagonalization with overlap
     ethr =  3.86E-06,  avg # of iterations =  1.7

     negative rho (up, down):  0.000E+00 1.225E-04

     Magnetic moment per site:
     atom:    1    charge:   14.4127    magn:    2.1219    constr:    0.0000

     total cpu time spent up to now is       13.0 secs

     total energy              =    -329.26075571 Ry
     Harris-Foulkes estimate   =    -329.26121992 Ry
     estimated scf accuracy    <       0.00024046 Ry

     total magnetization       =     2.16 Bohr mag/cell
     absolute magnetization    =     2.32 Bohr mag/cell

     iteration #  7     ecut=    50.00 Ry     beta=0.70
     Davidson diagonalization with overlap
     ethr =  1.50E-06,  avg # of iterations =  2.4

     negative rho (up, down):  0.000E+00 1.530E-04

     Magnetic moment per site:
     atom:    1    charge:   14.4157    magn:    2.1523    constr:    0.0000

     total cpu time spent up to now is       15.0 secs

     total energy              =    -329.26170679 Ry
     Harris-Foulkes estimate   =    -329.26146381 Ry
     estimated scf accuracy    <       0.00010667 Ry

     total magnetization       =     2.06 Bohr mag/cell
     absolute magnetization    =     2.20 Bohr mag/cell

     iteration #  8     ecut=    50.00 Ry     beta=0.70
     Davidson diagonalization with overlap
     ethr =  6.67E-07,  avg # of iterations =  1.5

     negative rho (up, down):  0.000E+00 1.418E-04

     Magnetic moment per site:
     atom:    1    charge:   14.4165    magn:    2.1058    constr:    0.0000

     total cpu time spent up to now is       16.6 secs

     total energy              =    -329.26170552 Ry
     Harris-Foulkes estimate   =    -329.26172587 Ry
     estimated scf accuracy    <       0.00003999 Ry

     total magnetization       =     2.07 Bohr mag/cell
     absolute magnetization    =     2.21 Bohr mag/cell

     iteration #  9     ecut=    50.00 Ry     beta=0.70
     Davidson diagonalization with overlap
     ethr =  2.50E-07,  avg # of iterations =  2.4

     negative rho (up, down):  0.000E+00 1.380E-04

     Magnetic moment per site:
     atom:    1    charge:   14.4158    magn:    2.0930    constr:    0.0000

     total cpu time spent up to now is       18.4 secs

     total energy              =    -329.26178098 Ry
     Harris-Foulkes estimate   =    -329.26176613 Ry
     estimated scf accuracy    <       0.00000278 Ry

     total magnetization       =     2.04 Bohr mag/cell
     absolute magnetization    =     2.18 Bohr mag/cell

     iteration # 10     ecut=    50.00 Ry     beta=0.70
     Davidson diagonalization with overlap
     ethr =  1.73E-08,  avg # of iterations =  2.5

     negative rho (up, down):  0.000E+00 1.354E-04

     Magnetic moment per site:
     atom:    1    charge:   14.4156    magn:    2.0862    constr:    0.0000

     total cpu time spent up to now is       20.3 secs

     total energy              =    -329.26179296 Ry
     Harris-Foulkes estimate   =    -329.26178802 Ry
     estimated scf accuracy    <       0.00000098 Ry

     total magnetization       =     2.03 Bohr mag/cell
     absolute magnetization    =     2.17 Bohr mag/cell

     iteration # 11     ecut=    50.00 Ry     beta=0.70
     Davidson diagonalization with overlap
     ethr =  6.14E-09,  avg # of iterations =  2.0

     negative rho (up, down):  0.000E+00 1.347E-04

     Magnetic moment per site:
     atom:    1    charge:   14.4157    magn:    2.0820    constr:    0.0000

     total cpu time spent up to now is       22.1 secs

     total energy              =    -329.26179660 Ry
     Harris-Foulkes estimate   =    -329.26179512 Ry
     estimated scf accuracy    <       0.00000009 Ry

     total magnetization       =     2.03 Bohr mag/cell
     absolute magnetization    =     2.16 Bohr mag/cell

     iteration # 12     ecut=    50.00 Ry     beta=0.70
     Davidson diagonalization with overlap
     ethr =  5.72E-10,  avg # of iterations =  2.4

     negative rho (up, down):  0.000E+00 1.350E-04

     Magnetic moment per site:
     atom:    1    charge:   14.4156    magn:    2.0825    constr:    0.0000

     total cpu time spent up to now is       24.0 secs

     total energy              =    -329.26179823 Ry
     Harris-Foulkes estimate   =    -329.26179732 Ry
     estimated scf accuracy    <       0.00000001 Ry

     total magnetization       =     2.02 Bohr mag/cell
     absolute magnetization    =     2.16 Bohr mag/cell

     iteration # 13     ecut=    50.00 Ry     beta=0.70
     Davidson diagonalization with overlap
     ethr =  6.76E-11,  avg # of iterations =  2.2

     negative rho (up, down):  0.000E+00 1.338E-04

     Magnetic moment per site:
     atom:    1    charge:   14.4156    magn:    2.0786    constr:    0.0000

     total cpu time spent up to now is       25.8 secs

     total energy              =    -329.26179774 Ry
     Harris-Foulkes estimate   =    -329.26179825 Ry
     estimated scf accuracy    <       0.00000003 Ry

     total magnetization       =     2.02 Bohr mag/cell
     absolute magnetization    =     2.16 Bohr mag/cell

     iteration # 14     ecut=    50.00 Ry     beta=0.70
     Davidson diagonalization with overlap
     ethr =  6.76E-11,  avg # of iterations =  2.8

     negative rho (up, down):  0.000E+00 1.344E-04

     Magnetic moment per site:
     atom:    1    charge:   14.4156    magn:    2.0803    constr:    0.0000

     total cpu time spent up to now is       27.7 secs

     total energy              =    -329.26179841 Ry
     Harris-Foulkes estimate   =    -329.26179811 Ry
     estimated scf accuracy    <       0.00000003 Ry

     total magnetization       =     2.02 Bohr mag/cell
     absolute magnetization    =     2.16 Bohr mag/cell

     iteration # 15     ecut=    50.00 Ry     beta=0.70
     Davidson diagonalization with overlap
     ethr =  6.76E-11,  avg # of iterations =  2.0

     negative rho (up, down):  0.000E+00 1.344E-04

     Magnetic moment per site:
     atom:    1    charge:   14.4156    magn:    2.0802    constr:    0.0000

     total cpu time spent up to now is       29.6 secs

     End of self-consistent calculation

 ------ SPIN UP ------------


          k = 0.0000 0.0000 0.0000 (   459 PWs)   bands (ev):

   -70.3262 -36.1439 -36.1439 -36.1439   9.3490  15.5757  15.5757  15.5757
    16.5001  16.5001  42.3566  42.3566

          k = 0.0000-0.1250 0.1250 (   471 PWs)   bands (ev):

   -70.3164 -36.2013 -36.1631 -36.1442   9.9754  15.4104  15.5358  15.9080
    16.3793  16.5149  38.9238  41.2515

          k = 0.0000-0.2500 0.2500 (   465 PWs)   bands (ev):

   -70.2912 -36.3351 -36.2080 -36.1438  11.5933  15.0260  15.3566  16.4280
    16.5663  16.7731  33.2260  38.6249

          k = 0.0000-0.3750 0.3750 (   474 PWs)   bands (ev):

   -70.2667 -36.4686 -36.2536 -36.1445  12.7988  14.6604  16.2322  16.6416
    16.8116  17.7534  27.8009  36.5522

          k = 0.0000 0.5000-0.5000 (   476 PWs)   bands (ev):

   -70.2564 -36.5225 -36.2719 -36.1448  12.9051  14.5140  16.6505  16.6802
    18.2048  18.2259  24.8413  35.7983

          k =-0.1250-0.1250 0.2500 (   469 PWs)   bands (ev):

   -70.2987 -36.2932 -36.1844 -36.1577  11.1271  15.2231  15.2267  16.2774
    16.5946  16.6198  35.9281  37.0965

          k =-0.1250-0.2500 0.3750 (   469 PWs)   bands (ev):

   -70.2737 -36.4121 -36.2385 -36.1632  12.7583  14.8036  15.1810  16.4395
    16.7517  17.8249  30.6713  34.4783

          k =-0.1250 0.6250-0.5000 (   473 PWs)   bands (ev):

   -70.2563 -36.4928 -36.2826 -36.1643  13.2113  14.5912  15.9119  16.6220
    17.1957  19.5496  25.9041  33.2030

          k =-0.2500 0.7500-0.5000 (   478 PWs)   bands (ev):

   -70.2565 -36.4540 -36.3038 -36.1839  13.7934  14.4625  15.1391  16.5759
    16.9606  20.0110  28.5459  29.3863

          k =-0.2500 0.6250-0.3750 (   474 PWs)   bands (ev):

   -70.2490 -36.4524 -36.3519 -36.1887  13.9202  14.5631  15.0823  16.7352
    17.0817  22.5450  25.1389  28.4292

          k = 0.0000 0.0000 0.2500 (   466 PWs)   bands (ev):

   -70.3063 -36.2143 -36.1819 -36.1819  10.5715  15.6002  15.6002  15.9094
    15.9711  16.7085  38.1875  40.1379

          k = 0.0000-0.1250 0.3750 (   464 PWs)   bands (ev):

   -70.2822 -36.3308 -36.2284 -36.1889  12.0809  15.1911  15.3520  16.0719
    16.6976  16.9641  33.6618  37.4724

          k = 0.0000-0.2500 0.5000 (   472 PWs)   bands (ev):

   -70.2586 -36.4563 -36.2747 -36.1863  13.1646  15.0314  15.0945  16.4354
    17.6985  18.1249  28.1718  35.5971

          k = 0.0000 0.6250-0.3750 (   468 PWs)   bands (ev):

   -70.2484 -36.5075 -36.2933 -36.1843  13.2214  14.9007  15.3713  16.4278
    18.1657  19.9977  24.9379  34.7744

          k =-0.1250-0.1250 0.5000 (   468 PWs)   bands (ev):

   -70.2593 -36.4100 -36.2848 -36.2127  13.3194  14.5584  15.4732  16.2350
    17.1604  18.2451  31.2394  31.9331

          k =-0.1250 0.7500-0.3750 (   465 PWs)   bands (ev):

   -70.2429 -36.4685 -36.3358 -36.2139  13.6940  14.5059  15.1651  16.5608
    17.6603  20.9765  26.4512  30.3219

          k =-0.2500 0.2500 0.2500 (   471 PWs)   bands (ev):

   -70.2802 -36.3918 -36.1901 -36.1901  12.5990  14.7956  14.7956  16.5496
    16.5496  17.8777  33.5593  33.5593

          k =-0.2500 0.7500-0.2500 (   475 PWs)   bands (ev):

   -70.2370 -36.4213 -36.4213 -36.2200  14.1762  14.1762  14.8354  17.2282
    17.2282  24.6372  24.6372  26.9466

          k = 0.6250-0.6250 0.2500 (   478 PWs)   bands (ev):

   -70.2619 -36.4519 -36.2610 -36.1954  13.7311  14.5243  15.0689  16.6452
    16.6689  19.7585  28.5095  31.9993

          k = 0.5000-0.5000 0.2500 (   472 PWs)   bands (ev):

   -70.2539 -36.4648 -36.3009 -36.1974  13.6939  14.4360  15.8227  16.6971
    16.7100  21.7540  25.1093  31.4573

          k = 0.5000-0.6250 0.3750 (   475 PWs)   bands (ev):

   -70.2531 -36.4210 -36.3220 -36.2313  14.2200  14.5537  15.0025  16.7163
    16.7407  22.7035  26.8225  27.8895

          k = 0.0000 0.0000 0.5000 (   458 PWs)   bands (ev):

   -70.2603 -36.3394 -36.2765 -36.2765  13.0950  14.6824  16.0069  16.0069
    16.7334  17.7806  34.5475  34.5475

          k = 0.0000-0.1250 0.6250 (   466 PWs)   bands (ev):

   -70.2389 -36.4269 -36.3251 -36.2856  13.6063  14.0720  16.0207  16.4033
    17.5754  19.9013  29.2719  32.2351

          k = 0.0000 0.7500-0.2500 (   462 PWs)   bands (ev):

   -70.2298 -36.4705 -36.3448 -36.2808  13.5233  14.0164  15.9500  16.5004
    18.0719  22.7121  25.3877  31.3305

          k =-0.1250 0.8750-0.2500 (   466 PWs)   bands (ev):

   -70.2246 -36.4407 -36.3894 -36.3001  13.6025  13.6161  16.0697  17.1540
    17.7649  23.1333  27.4582  28.1881

          k = 0.5000-0.5000 0.5000 (   484 PWs)   bands (ev):

   -70.2521 -36.3301 -36.3301 -36.3301  14.6432  14.6432  14.6432  16.7141
    16.7141  26.2166  26.2166  26.2166

          k = 0.0000 0.0000 0.7500 (   466 PWs)   bands (ev):

   -70.2196 -36.4068 -36.3757 -36.3757  13.3474  13.4129  17.0994  17.0994
    17.5823  22.3989  29.6632  29.6632

          k = 0.0000 0.8750-0.1250 (   474 PWs)   bands (ev):

   -70.2119 -36.4341 -36.3971 -36.3783  13.1460  13.1792  17.2595  17.4307
    17.9790  25.6054  26.4713  28.6006

          k = 0.0000 0.0000-1.0000 (   466 PWs)   bands (ev):

   -70.2041 -36.4175 -36.4175 -36.4175  12.8994  12.8994  17.9408  17.9408
    17.9408  27.4958  27.4958  27.4958

 ------ SPIN DOWN ----------


          k = 0.0000 0.0000 0.0000 (   459 PWs)   bands (ev):

   -67.8562 -33.7164 -33.7164 -33.7164   9.4707  17.1284  17.1284  17.1284
    19.4631  19.4631  42.0697  42.0697

          k = 0.0000-0.1250 0.1250 (   471 PWs)   bands (ev):

   -67.8455 -33.7797 -33.7373 -33.7167  10.1021  16.9349  17.0840  17.4864
    19.2660  19.4796  39.0951  41.1902

          k = 0.0000-0.2500 0.2500 (   465 PWs)   bands (ev):

   -67.8183 -33.9280 -33.7865 -33.7165  11.7988  16.4886  16.8914  18.4255
    19.0674  19.5459  33.7804  38.7100

          k = 0.0000-0.3750 0.3750 (   474 PWs)   bands (ev):

   -67.7915 -34.0754 -33.8363 -33.7171  13.5768  16.0685  17.2270  19.1462
    19.5058  19.6528  28.6682  36.6021

          k = 0.0000 0.5000-0.5000 (   476 PWs)   bands (ev):

   -67.7803 -34.1351 -33.8563 -33.7174  14.0617  15.9014  18.2807  19.2139
    19.7103  20.0113  26.0460  35.8178

          k =-0.1250-0.1250 0.2500 (   469 PWs)   bands (ev):

   -67.8264 -33.8816 -33.7608 -33.7316  11.2821  16.7078  16.7952  18.2109
    19.0141  19.5763  36.3138  37.4267

          k =-0.1250-0.2500 0.3750 (   469 PWs)   bands (ev):

   -67.7993 -34.0130 -33.8202 -33.7376  13.1773  16.2692  16.5789  18.9710
    19.3519  19.7813  31.3406  34.8786

          k =-0.1250 0.6250-0.5000 (   473 PWs)   bands (ev):

   -67.7802 -34.1021 -33.8685 -33.7388  14.3124  15.9751  17.1607  19.1414
    19.7034  20.9059  26.9143  33.5940

          k =-0.2500 0.7500-0.5000 (   478 PWs)   bands (ev):

   -67.7805 -34.0588 -33.8924 -33.7602  14.7013  15.9922  16.3566  19.0506
    19.6160  21.4509  29.3168  29.9835

          k =-0.2500 0.6250-0.3750 (   474 PWs)   bands (ev):

   -67.7724 -34.0571 -33.9456 -33.7655  15.1641  15.9551  16.4424  19.2267
    19.5512  23.5636  26.1443  29.0710

          k = 0.0000 0.0000 0.2500 (   466 PWs)   bands (ev):

   -67.8346 -33.7948 -33.7580 -33.7580  10.7112  17.1217  17.1217  17.4917
    18.7530  19.7084  38.4100  40.3571

          k = 0.0000-0.1250 0.3750 (   464 PWs)   bands (ev):

   -67.8086 -33.9234 -33.8091 -33.7659  12.3372  16.8314  16.9843  18.3416
    18.3468  19.8897  34.2300  37.7880

          k = 0.0000-0.2500 0.5000 (   472 PWs)   bands (ev):

   -67.7828 -34.0616 -33.8597 -33.7631  14.0414  16.4634  16.7894  18.6481
    19.4441  20.3285  29.0108  36.0553

          k = 0.0000 0.6250-0.3750 (   468 PWs)   bands (ev):

   -67.7718 -34.1180 -33.8802 -33.7610  14.5127  16.3141  17.0823  18.7665
    19.9684  21.3276  26.0922  35.2120

          k =-0.1250-0.1250 0.5000 (   468 PWs)   bands (ev):

   -67.7837 -34.0105 -33.8711 -33.7921  13.9751  16.4719  16.9208  18.2399
    19.1410  20.4219  31.9724  32.4551

          k =-0.1250 0.7500-0.3750 (   465 PWs)   bands (ev):

   -67.7659 -34.0747 -33.9273 -33.7935  15.0603  16.2106  16.6667  18.6247
    19.6024  22.3344  27.3737  30.9215

          k =-0.2500 0.2500 0.2500 (   471 PWs)   bands (ev):

   -67.8063 -33.9904 -33.7671 -33.7671  12.8309  16.2566  16.2566  19.4013
    19.4013  19.4759  33.9992  33.9992

          k =-0.2500 0.7500-0.2500 (   475 PWs)   bands (ev):

   -67.7593 -34.0220 -34.0220 -33.7998  15.9205  15.9205  16.1423  19.1953
    19.1953  25.6443  25.6443  27.6663

          k = 0.6250-0.6250 0.2500 (   478 PWs)   bands (ev):

   -67.7863 -34.0567 -33.8452 -33.7732  14.5155  15.8709  16.1761  19.4052
    19.6502  21.1317  29.2206  32.4222

          k = 0.5000-0.5000 0.2500 (   472 PWs)   bands (ev):

   -67.7777 -34.0713 -33.8891 -33.7754  14.8591  15.7371  16.7472  19.4484
    19.7337  22.6788  26.1417  31.8622

          k = 0.5000-0.6250 0.3750 (   475 PWs)   bands (ev):

   -67.7768 -34.0225 -33.9129 -33.8127  15.3759  15.8028  16.0361  19.5807
    19.7026  23.6888  27.5481  28.5420

          k = 0.0000 0.0000 0.5000 (   458 PWs)   bands (ev):

   -67.7849 -33.9334 -33.8619 -33.8619  13.6702  17.0676  17.5086  17.5086
    18.3926  20.3165  35.0157  35.0157

          k = 0.0000-0.1250 0.6250 (   466 PWs)   bands (ev):

   -67.7616 -34.0288 -33.9153 -33.8725  14.9007  16.1417  17.5261  18.1165
    19.3078  21.5282  29.9863  32.6792

          k = 0.0000 0.7500-0.2500 (   462 PWs)   bands (ev):

   -67.7517 -34.0765 -33.9371 -33.8673  15.2811  15.8489  17.4484  18.2802
    19.8656  23.7654  26.3418  31.7368

          k =-0.1250 0.8750-0.2500 (   466 PWs)   bands (ev):

   -67.7460 -34.0433 -33.9863 -33.8882  15.3861  15.5786  17.5573  18.8542
    19.5461  24.1651  28.2323  28.7439

          k = 0.5000-0.5000 0.5000 (   484 PWs)   bands (ev):

   -67.7756 -33.9219 -33.9219 -33.9219  15.7681  15.7681  15.7681  19.7571
    19.7571  26.9079  26.9079  26.9079

          k = 0.0000 0.0000 0.7500 (   466 PWs)   bands (ev):

   -67.7405 -34.0062 -33.9712 -33.9712  15.0907  15.4739  18.7081  18.7081
    19.3261  23.4012  30.0358  30.0358

          k = 0.0000 0.8750-0.1250 (   474 PWs)   bands (ev):

   -67.7321 -34.0354 -33.9945 -33.9741  15.0956  15.1067  18.9143  19.0990
    19.7638  26.2429  27.0168  28.9045

          k = 0.0000 0.0000-1.0000 (   466 PWs)   bands (ev):

   -67.7234 -34.0172 -34.0172 -34.0172  14.8468  14.8468  19.7220  19.7220
    19.7220  27.6917  27.6917  27.6917

     the Fermi energy is    17.7201 ev

!    total energy              =    -329.26179844 Ry
     Harris-Foulkes estimate   =    -329.26179844 Ry
     estimated scf accuracy    <          9.2E-10 Ry

     total all-electron energy =     -2545.558334 Ry

     The total energy is the sum of the following terms:

     one-electron contribution =    -112.01070262 Ry
     hartree contribution      =      66.22500482 Ry
     xc contribution           =     -34.79961539 Ry
     ewald contribution        =    -172.52662280 Ry
     one-center paw contrib.   =     -76.15054061 Ry
     smearing contrib. (-TS)   =       0.00067816 Ry

     total magnetization       =     2.02 Bohr mag/cell
     absolute magnetization    =     2.16 Bohr mag/cell

     convergence has been achieved in  15 iterations

     Forces acting on atoms (Ry/au):


     negative rho (up, down):  0.000E+00 1.344E-04
     atom    1 type  1   force =     0.00000000    0.00000000    0.00000000

     Total force =     0.000000     Total SCF correction =     0.000000


     entering subroutine stress ...


     negative rho (up, down):  0.000E+00 1.344E-04
          total   stress  (Ry/bohr**3)                   (kbar)     P= -148.15
  -0.00100707  -0.00000000   0.00000000       -148.15     -0.00      0.00
  -0.00000000  -0.00100707  -0.00000000         -0.00   -148.15     -0.00
   0.00000000  -0.00000000  -0.00100707          0.00     -0.00   -148.15


     Writing output data file Fe_bcc.save

     init_run     :      1.48s CPU      1.56s WALL (       1 calls)
     electrons    :     27.22s CPU     27.63s WALL (       1 calls)
     forces       :      0.12s CPU      0.13s WALL (       1 calls)
     stress       :      0.46s CPU      0.48s WALL (       1 calls)

     Called by init_run:
     wfcinit      :      0.43s CPU      0.43s WALL (       1 calls)
     potinit      :      0.55s CPU      0.60s WALL (       1 calls)

     Called by electrons:
     c_bands      :     16.27s CPU     16.36s WALL (      15 calls)
     sum_band     :      2.95s CPU      3.02s WALL (      15 calls)
     v_of_rho     :      0.36s CPU      0.38s WALL (      16 calls)
     newd         :      0.25s CPU      0.26s WALL (      16 calls)
     mix_rho      :      0.04s CPU      0.05s WALL (      15 calls)

     Called by c_bands:
     init_us_2    :      0.33s CPU      0.33s WALL (    1914 calls)
     cegterg      :     15.64s CPU     15.70s WALL (     870 calls)

     Called by *egterg:
     h_psi        :     13.20s CPU     13.42s WALL (    2892 calls)
     s_psi        :      0.37s CPU      0.28s WALL (    2892 calls)
     g_psi        :      0.07s CPU      0.08s WALL (    1964 calls)
     cdiaghg      :      0.87s CPU      0.88s WALL (    2834 calls)

     Called by h_psi:
     add_vuspsi   :      0.39s CPU      0.32s WALL (    2892 calls)

     General routines
     calbec       :      0.39s CPU      0.40s WALL (    3878 calls)
     fft          :      0.19s CPU      0.20s WALL (     530 calls)
     ffts         :      0.02s CPU      0.02s WALL (      62 calls)
     fftw         :     13.37s CPU     13.64s WALL (   63678 calls)
     interpolate  :      0.05s CPU      0.05s WALL (      62 calls)
     davcio       :      0.00s CPU      0.00s WALL (      58 calls)


     PAW routines
     PAW_pot      :      7.86s CPU      8.13s WALL (      16 calls)
     PAW_symme    :      0.02s CPU      0.02s WALL (      31 calls)

     PWSCF        :    29.75s CPU        30.32s WALL


   This run was terminated on:  10:18: 0  11May2015            

=------------------------------------------------------------------------------=
   JOB DONE.
=------------------------------------------------------------------------------=
