
     Program PWSCF v.5.1.2 starts on 11May2015 at 10:18:56 

     This program is part of the open-source Quantum ESPRESSO suite
     for quantum simulation of materials; please cite
         "P. Giannozzi et al., J. Phys.:Condens. Matter 21 395502 (2009);
          URL http://www.quantum-espresso.org", 
     in publications or presentations arising from this work. More details at
     http://www.quantum-espresso.org/quote

     Serial version
     Reading input from Fe_bcc_5.43_8.pw.in

     Current dimensions of program PWSCF are:
     Max number of different atomic species (ntypx) = 10
     Max number of k-points (npk) =  40000
     Max angular momentum in pseudopotentials (lmaxx) =  3
               file Fe.pbe-spn-kjpaw_psl.0.2.1.UPF: wavefunction(s)  3D renormalized

     G-vector sticks info
     --------------------
     sticks:   dense  smooth     PW     G-vecs:    dense   smooth      PW
     Sum         411     333    117                 5425     3805     767

     Generating pointlists ...
     new r_m :   0.3572 (alat units)  1.9398 (a.u.) for type    1


     bravais-lattice index     =            3
     lattice parameter (alat)  =       5.4300  a.u.
     unit-cell volume          =      80.0515 (a.u.)^3
     number of atoms/cell      =            1
     number of atomic types    =            1
     number of electrons       =        16.00
     number of Kohn-Sham states=           12
     kinetic-energy cutoff     =      50.0000  Ry
     charge density cutoff     =     250.0000  Ry
     convergence threshold     =      1.0E-08
     mixing beta               =       0.7000
     number of iterations used =            8  plain     mixing
     Exchange-correlation      =  SLA  PW   PBX  PBC ( 1  4  3  4 0 0)

     celldm(1)=   5.430000  celldm(2)=   0.000000  celldm(3)=   0.000000
     celldm(4)=   0.000000  celldm(5)=   0.000000  celldm(6)=   0.000000

     crystal axes: (cart. coord. in units of alat)
               a(1) = (   0.500000   0.500000   0.500000 )  
               a(2) = (  -0.500000   0.500000   0.500000 )  
               a(3) = (  -0.500000  -0.500000   0.500000 )  

     reciprocal axes: (cart. coord. in units 2 pi/alat)
               b(1) = (  1.000000  0.000000  1.000000 )  
               b(2) = ( -1.000000  1.000000  0.000000 )  
               b(3) = (  0.000000 -1.000000  1.000000 )  


     PseudoPot. # 1 for Fe read from file:
     ./Fe.pbe-spn-kjpaw_psl.0.2.1.UPF
     MD5 check sum: a0a08122d52b112de96d1da1d7dd020f
     Pseudo is Projector augmented-wave + core cor, Zval = 16.0
     Generated using "atomic" code by A. Dal Corso  v.5.0.2 svn rev. 9415
     Shape of augmentation charge: PSQ
     Using radial grid of 1191 points,  6 beta functions with: 
                l(1) =   0
                l(2) =   0
                l(3) =   1
                l(4) =   1
                l(5) =   2
                l(6) =   2
     Q(r) pseudized with 0 coefficients 


     atomic species   valence    mass     pseudopotential
        Fe            16.00    55.85000     Fe( 1.00)

     Starting magnetic structure 
     atomic species   magnetization
        Fe           0.700

     48 Sym. Ops., with inversion, found



   Cartesian axes

     site n.     atom                  positions (alat units)
         1           Fe  tau(   1) = (   0.0000000   0.0000000   0.0000000  )

     number of k points=    58  Marzari-Vanderbilt smearing, width (Ry)=  0.0250
                       cart. coord. in units 2pi/alat
        k(    1) = (   0.0000000   0.0000000   0.0000000), wk =   0.0019531
        k(    2) = (   0.0000000  -0.1250000   0.1250000), wk =   0.0234375
        k(    3) = (   0.0000000  -0.2500000   0.2500000), wk =   0.0234375
        k(    4) = (   0.0000000  -0.3750000   0.3750000), wk =   0.0234375
        k(    5) = (   0.0000000   0.5000000  -0.5000000), wk =   0.0117188
        k(    6) = (  -0.1250000  -0.1250000   0.2500000), wk =   0.0468750
        k(    7) = (  -0.1250000  -0.2500000   0.3750000), wk =   0.0937500
        k(    8) = (  -0.1250000   0.6250000  -0.5000000), wk =   0.0937500
        k(    9) = (  -0.2500000   0.7500000  -0.5000000), wk =   0.0468750
        k(   10) = (  -0.2500000   0.6250000  -0.3750000), wk =   0.0468750
        k(   11) = (   0.0000000   0.0000000   0.2500000), wk =   0.0117188
        k(   12) = (   0.0000000  -0.1250000   0.3750000), wk =   0.0468750
        k(   13) = (   0.0000000  -0.2500000   0.5000000), wk =   0.0468750
        k(   14) = (   0.0000000   0.6250000  -0.3750000), wk =   0.0234375
        k(   15) = (  -0.1250000  -0.1250000   0.5000000), wk =   0.0468750
        k(   16) = (  -0.1250000   0.7500000  -0.3750000), wk =   0.0937500
        k(   17) = (  -0.2500000   0.2500000   0.2500000), wk =   0.0156250
        k(   18) = (  -0.2500000   0.7500000  -0.2500000), wk =   0.0156250
        k(   19) = (   0.6250000  -0.6250000   0.2500000), wk =   0.0468750
        k(   20) = (   0.5000000  -0.5000000   0.2500000), wk =   0.0234375
        k(   21) = (   0.5000000  -0.6250000   0.3750000), wk =   0.0468750
        k(   22) = (   0.0000000   0.0000000   0.5000000), wk =   0.0117188
        k(   23) = (   0.0000000  -0.1250000   0.6250000), wk =   0.0468750
        k(   24) = (   0.0000000   0.7500000  -0.2500000), wk =   0.0234375
        k(   25) = (  -0.1250000   0.8750000  -0.2500000), wk =   0.0468750
        k(   26) = (   0.5000000  -0.5000000   0.5000000), wk =   0.0039062
        k(   27) = (   0.0000000   0.0000000   0.7500000), wk =   0.0117188
        k(   28) = (   0.0000000   0.8750000  -0.1250000), wk =   0.0234375
        k(   29) = (   0.0000000   0.0000000  -1.0000000), wk =   0.0019531
        k(   30) = (   0.0000000   0.0000000   0.0000000), wk =   0.0019531
        k(   31) = (   0.0000000  -0.1250000   0.1250000), wk =   0.0234375
        k(   32) = (   0.0000000  -0.2500000   0.2500000), wk =   0.0234375
        k(   33) = (   0.0000000  -0.3750000   0.3750000), wk =   0.0234375
        k(   34) = (   0.0000000   0.5000000  -0.5000000), wk =   0.0117188
        k(   35) = (  -0.1250000  -0.1250000   0.2500000), wk =   0.0468750
        k(   36) = (  -0.1250000  -0.2500000   0.3750000), wk =   0.0937500
        k(   37) = (  -0.1250000   0.6250000  -0.5000000), wk =   0.0937500
        k(   38) = (  -0.2500000   0.7500000  -0.5000000), wk =   0.0468750
        k(   39) = (  -0.2500000   0.6250000  -0.3750000), wk =   0.0468750
        k(   40) = (   0.0000000   0.0000000   0.2500000), wk =   0.0117188
        k(   41) = (   0.0000000  -0.1250000   0.3750000), wk =   0.0468750
        k(   42) = (   0.0000000  -0.2500000   0.5000000), wk =   0.0468750
        k(   43) = (   0.0000000   0.6250000  -0.3750000), wk =   0.0234375
        k(   44) = (  -0.1250000  -0.1250000   0.5000000), wk =   0.0468750
        k(   45) = (  -0.1250000   0.7500000  -0.3750000), wk =   0.0937500
        k(   46) = (  -0.2500000   0.2500000   0.2500000), wk =   0.0156250
        k(   47) = (  -0.2500000   0.7500000  -0.2500000), wk =   0.0156250
        k(   48) = (   0.6250000  -0.6250000   0.2500000), wk =   0.0468750
        k(   49) = (   0.5000000  -0.5000000   0.2500000), wk =   0.0234375
        k(   50) = (   0.5000000  -0.6250000   0.3750000), wk =   0.0468750
        k(   51) = (   0.0000000   0.0000000   0.5000000), wk =   0.0117188
        k(   52) = (   0.0000000  -0.1250000   0.6250000), wk =   0.0468750
        k(   53) = (   0.0000000   0.7500000  -0.2500000), wk =   0.0234375
        k(   54) = (  -0.1250000   0.8750000  -0.2500000), wk =   0.0468750
        k(   55) = (   0.5000000  -0.5000000   0.5000000), wk =   0.0039062
        k(   56) = (   0.0000000   0.0000000   0.7500000), wk =   0.0117188
        k(   57) = (   0.0000000   0.8750000  -0.1250000), wk =   0.0234375
        k(   58) = (   0.0000000   0.0000000  -1.0000000), wk =   0.0019531

     Dense  grid:     5425 G-vectors     FFT dimensions: (  24,  24,  24)

     Smooth grid:     3805 G-vectors     FFT dimensions: (  24,  24,  24)

     Largest allocated arrays     est. size (Mb)     dimensions
        Kohn-Sham Wavefunctions         0.09 Mb     (     490,   12)
        NL pseudopotentials             0.13 Mb     (     490,   18)
        Each V/rho on FFT grid          0.42 Mb     (   13824,   2)
        Each G-vector array             0.04 Mb     (    5425)
        G-vector shells                 0.00 Mb     (      88)
     Largest temporary arrays     est. size (Mb)     dimensions
        Auxiliary wavefunctions         0.36 Mb     (     490,   48)
        Each subspace H/S matrix        0.04 Mb     (      48,   48)
        Each <psi_i|beta_j> matrix      0.00 Mb     (      18,   12)
        Arrays for rho mixing           1.69 Mb     (   13824,    8)

     Check: negative/imaginary core charge=   -0.000432    0.000000

     Initial potential from superposition of free atoms

     starting charge   15.99956, renormalised to   16.00000
     Starting wfc are   13 randomized atomic wfcs

     total cpu time spent up to now is        2.1 secs

     Self-consistent Calculation

     iteration #  1     ecut=    50.00 Ry     beta=0.70
     Davidson diagonalization with overlap
     ethr =  1.00E-02,  avg # of iterations =  3.3

     negative rho (up, down):  0.000E+00 3.557E-04

     Magnetic moment per site:
     atom:    1    charge:   14.2925    magn:    5.7311    constr:    0.0000

     total cpu time spent up to now is        4.2 secs

     total energy              =    -328.97721063 Ry
     Harris-Foulkes estimate   =    -328.06515315 Ry
     estimated scf accuracy    <       1.49671136 Ry

     total magnetization       =     3.91 Bohr mag/cell
     absolute magnetization    =     3.93 Bohr mag/cell

     iteration #  2     ecut=    50.00 Ry     beta=0.70
     Davidson diagonalization with overlap
     ethr =  9.35E-03,  avg # of iterations =  1.2

     negative rho (up, down):  0.000E+00 3.772E-04

     Magnetic moment per site:
     atom:    1    charge:   14.5254    magn:    3.5562    constr:    0.0000

     total cpu time spent up to now is        5.7 secs

     total energy              =    -329.15341896 Ry
     Harris-Foulkes estimate   =    -329.10013726 Ry
     estimated scf accuracy    <       0.35644023 Ry

     total magnetization       =     3.10 Bohr mag/cell
     absolute magnetization    =     3.20 Bohr mag/cell

     iteration #  3     ecut=    50.00 Ry     beta=0.70
     Davidson diagonalization with overlap
     ethr =  2.23E-03,  avg # of iterations =  2.0

     negative rho (up, down):  0.000E+00 3.883E-04

     Magnetic moment per site:
     atom:    1    charge:   14.4094    magn:    2.5381    constr:    0.0000

     total cpu time spent up to now is        7.5 secs

     total energy              =    -329.17866893 Ry
     Harris-Foulkes estimate   =    -329.34556025 Ry
     estimated scf accuracy    <       0.47757583 Ry

     total magnetization       =     2.61 Bohr mag/cell
     absolute magnetization    =     2.74 Bohr mag/cell

     iteration #  4     ecut=    50.00 Ry     beta=0.70
     Davidson diagonalization with overlap
     ethr =  2.23E-03,  avg # of iterations =  2.0

     negative rho (up, down):  0.000E+00 2.418E-04

     Magnetic moment per site:
     atom:    1    charge:   14.4374    magn:    2.3492    constr:    0.0000

     total cpu time spent up to now is        9.3 secs

     total energy              =    -329.25735840 Ry
     Harris-Foulkes estimate   =    -329.25677594 Ry
     estimated scf accuracy    <       0.00173262 Ry

     total magnetization       =     2.36 Bohr mag/cell
     absolute magnetization    =     2.54 Bohr mag/cell

     iteration #  5     ecut=    50.00 Ry     beta=0.70
     Davidson diagonalization with overlap
     ethr =  1.08E-05,  avg # of iterations =  3.4

     negative rho (up, down):  0.000E+00 2.364E-04

     Magnetic moment per site:
     atom:    1    charge:   14.4341    magn:    2.3324    constr:    0.0000

     total cpu time spent up to now is       11.5 secs

     total energy              =    -329.26027389 Ry
     Harris-Foulkes estimate   =    -329.26011606 Ry
     estimated scf accuracy    <       0.00054297 Ry

     total magnetization       =     2.24 Bohr mag/cell
     absolute magnetization    =     2.41 Bohr mag/cell

     iteration #  6     ecut=    50.00 Ry     beta=0.70
     Davidson diagonalization with overlap
     ethr =  3.39E-06,  avg # of iterations =  1.2

     negative rho (up, down):  0.000E+00 1.299E-04

     Magnetic moment per site:
     atom:    1    charge:   14.4244    magn:    2.1239    constr:    0.0000

     total cpu time spent up to now is       13.0 secs

     total energy              =    -329.25909349 Ry
     Harris-Foulkes estimate   =    -329.26033011 Ry
     estimated scf accuracy    <       0.00028031 Ry

     total magnetization       =     2.22 Bohr mag/cell
     absolute magnetization    =     2.39 Bohr mag/cell

     iteration #  7     ecut=    50.00 Ry     beta=0.70
     Davidson diagonalization with overlap
     ethr =  1.75E-06,  avg # of iterations =  2.5

     negative rho (up, down):  0.000E+00 1.756E-04

     Magnetic moment per site:
     atom:    1    charge:   14.4283    magn:    2.2052    constr:    0.0000

     total cpu time spent up to now is       15.4 secs

     total energy              =    -329.26070779 Ry
     Harris-Foulkes estimate   =    -329.26031717 Ry
     estimated scf accuracy    <       0.00016585 Ry

     total magnetization       =     2.08 Bohr mag/cell
     absolute magnetization    =     2.23 Bohr mag/cell

     iteration #  8     ecut=    50.00 Ry     beta=0.70
     Davidson diagonalization with overlap
     ethr =  1.04E-06,  avg # of iterations =  2.0

     negative rho (up, down):  0.000E+00 1.710E-04

     Magnetic moment per site:
     atom:    1    charge:   14.4293    magn:    2.1833    constr:    0.0000

     total cpu time spent up to now is       17.4 secs

     total energy              =    -329.26082126 Ry
     Harris-Foulkes estimate   =    -329.26081601 Ry
     estimated scf accuracy    <       0.00002751 Ry

     total magnetization       =     2.12 Bohr mag/cell
     absolute magnetization    =     2.28 Bohr mag/cell

     iteration #  9     ecut=    50.00 Ry     beta=0.70
     Davidson diagonalization with overlap
     ethr =  1.72E-07,  avg # of iterations =  2.5

     negative rho (up, down):  0.000E+00 1.701E-04

     Magnetic moment per site:
     atom:    1    charge:   14.4291    magn:    2.1765    constr:    0.0000

     total cpu time spent up to now is       19.1 secs

     total energy              =    -329.26084443 Ry
     Harris-Foulkes estimate   =    -329.26083953 Ry
     estimated scf accuracy    <       0.00000468 Ry

     total magnetization       =     2.11 Bohr mag/cell
     absolute magnetization    =     2.26 Bohr mag/cell

     iteration # 10     ecut=    50.00 Ry     beta=0.70
     Davidson diagonalization with overlap
     ethr =  2.92E-08,  avg # of iterations =  1.5

     negative rho (up, down):  0.000E+00 1.634E-04

     Magnetic moment per site:
     atom:    1    charge:   14.4286    magn:    2.1575    constr:    0.0000

     total cpu time spent up to now is       20.6 secs

     total energy              =    -329.26084136 Ry
     Harris-Foulkes estimate   =    -329.26084639 Ry
     estimated scf accuracy    <       0.00000344 Ry

     total magnetization       =     2.10 Bohr mag/cell
     absolute magnetization    =     2.25 Bohr mag/cell

     iteration # 11     ecut=    50.00 Ry     beta=0.70
     Davidson diagonalization with overlap
     ethr =  2.15E-08,  avg # of iterations =  2.0

     negative rho (up, down):  0.000E+00 1.628E-04

     Magnetic moment per site:
     atom:    1    charge:   14.4286    magn:    2.1533    constr:    0.0000

     total cpu time spent up to now is       22.4 secs

     total energy              =    -329.26085303 Ry
     Harris-Foulkes estimate   =    -329.26085046 Ry
     estimated scf accuracy    <       0.00000005 Ry

     total magnetization       =     2.09 Bohr mag/cell
     absolute magnetization    =     2.24 Bohr mag/cell

     iteration # 12     ecut=    50.00 Ry     beta=0.70
     Davidson diagonalization with overlap
     ethr =  2.92E-10,  avg # of iterations =  3.2

     negative rho (up, down):  0.000E+00 1.626E-04

     Magnetic moment per site:
     atom:    1    charge:   14.4285    magn:    2.1523    constr:    0.0000

     total cpu time spent up to now is       24.6 secs

     total energy              =    -329.26085469 Ry
     Harris-Foulkes estimate   =    -329.26085376 Ry
     estimated scf accuracy    <       0.00000002 Ry

     total magnetization       =     2.09 Bohr mag/cell
     absolute magnetization    =     2.24 Bohr mag/cell

     iteration # 13     ecut=    50.00 Ry     beta=0.70
     Davidson diagonalization with overlap
     ethr =  9.79E-11,  avg # of iterations =  2.0

     negative rho (up, down):  0.000E+00 1.622E-04

     Magnetic moment per site:
     atom:    1    charge:   14.4285    magn:    2.1509    constr:    0.0000

     total cpu time spent up to now is       26.6 secs

     total energy              =    -329.26085492 Ry
     Harris-Foulkes estimate   =    -329.26085479 Ry
     estimated scf accuracy    <       0.00000002 Ry

     total magnetization       =     2.09 Bohr mag/cell
     absolute magnetization    =     2.23 Bohr mag/cell

     iteration # 14     ecut=    50.00 Ry     beta=0.70
     Davidson diagonalization with overlap
     ethr =  9.79E-11,  avg # of iterations =  2.0

     negative rho (up, down):  0.000E+00 1.622E-04

     Magnetic moment per site:
     atom:    1    charge:   14.4285    magn:    2.1507    constr:    0.0000

     total cpu time spent up to now is       28.6 secs

     End of self-consistent calculation

 ------ SPIN UP ------------


          k = 0.0000 0.0000 0.0000 (   459 PWs)   bands (ev):

   -70.6978 -36.5263 -36.5263 -36.5263   9.0823  15.1999  15.1999  15.1999
    16.1503  16.1503  41.8323  41.8323

          k = 0.0000-0.1250 0.1250 (   475 PWs)   bands (ev):

   -70.6888 -36.5809 -36.5449 -36.5273   9.7012  15.0398  15.1646  15.5236
    16.0301  16.1645  38.3778  40.7168

          k = 0.0000-0.2500 0.2500 (   481 PWs)   bands (ev):

   -70.6659 -36.7076 -36.5884 -36.5282  11.3003  14.6669  15.0085  16.0619
    16.2141  16.3656  32.6733  38.0827

          k = 0.0000-0.3750 0.3750 (   476 PWs)   bands (ev):

   -70.6425 -36.8332 -36.6304 -36.5278  12.5049  14.3119  15.8907  16.2868
    16.4305  17.3190  27.2742  36.0442

          k = 0.0000 0.5000-0.5000 (   476 PWs)   bands (ev):

   -70.6329 -36.8840 -36.6477 -36.5278  12.6149  14.1697  16.2777  16.3241
    17.7572  17.8774  24.3144  35.3037

          k =-0.1250-0.1250 0.2500 (   474 PWs)   bands (ev):

   -70.6724 -36.6676 -36.5652 -36.5402  10.8399  14.8602  14.8723  15.9234
    16.1956  16.2622  35.3896  36.5278

          k =-0.1250-0.2500 0.3750 (   480 PWs)   bands (ev):

   -70.6494 -36.7806 -36.6171 -36.5455  12.4551  14.4583  14.8351  16.0698
    16.3903  17.3979  30.1303  33.9213

          k =-0.1250 0.6250-0.5000 (   479 PWs)   bands (ev):

   -70.6330 -36.8564 -36.6582 -36.5465  12.9133  14.2463  15.5703  16.2494
    16.8060  19.1202  25.3839  32.6622

          k =-0.2500 0.7500-0.5000 (   478 PWs)   bands (ev):

   -70.6329 -36.8196 -36.6779 -36.5646  13.4771  14.1432  14.7922  16.2011
    16.5834  19.5672  28.0453  28.8408

          k =-0.2500 0.6250-0.3750 (   476 PWs)   bands (ev):

   -70.6260 -36.8182 -36.7235 -36.5692  13.6038  14.2289  14.7554  16.3565
    16.6913  22.0973  24.6322  27.9026

          k = 0.0000 0.0000 0.2500 (   482 PWs)   bands (ev):

   -70.6799 -36.5942 -36.5637 -36.5637  10.2892  15.2251  15.2251  15.5251
    15.6357  16.3524  37.6761  39.5261

          k = 0.0000-0.1250 0.3750 (   472 PWs)   bands (ev):

   -70.6571 -36.7032 -36.6072 -36.5697  11.7856  14.8616  14.9846  15.7019
    16.2925  16.6001  33.1148  37.0308

          k = 0.0000-0.2500 0.5000 (   478 PWs)   bands (ev):

   -70.6351 -36.8221 -36.6508 -36.5670  12.8679  14.6733  14.7773  16.0614
    17.2656  17.7354  27.6417  35.0033

          k = 0.0000 0.6250-0.3750 (   476 PWs)   bands (ev):

   -70.6258 -36.8701 -36.6686 -36.5657  12.9295  14.5463  15.0510  16.0562
    17.7193  19.6080  24.4140  34.1860

          k =-0.1250-0.1250 0.5000 (   477 PWs)   bands (ev):

   -70.6359 -36.7786 -36.6605 -36.5921  13.0166  14.2494  15.1081  15.8552
    16.7592  17.8359  30.7106  31.3644

          k =-0.1250 0.7500-0.3750 (   474 PWs)   bands (ev):

   -70.6206 -36.8336 -36.7086 -36.5938  13.3969  14.1986  14.8120  16.1753
    17.2370  20.5436  25.9357  29.7856

          k =-0.2500 0.2500 0.2500 (   483 PWs)   bands (ev):

   -70.6555 -36.7616 -36.5710 -36.5710  12.2923  14.4505  14.4505  16.1908
    16.1908  17.4468  33.0216  33.0216

          k =-0.2500 0.7500-0.2500 (   475 PWs)   bands (ev):

   -70.6147 -36.7890 -36.7890 -36.5986  13.8796  13.8796  14.4840  16.8192
    16.8192  24.1749  24.1749  26.4100

          k = 0.6250-0.6250 0.2500 (   480 PWs)   bands (ev):

   -70.6381 -36.8175 -36.6379 -36.5753  13.4165  14.1833  14.7250  16.2789
    16.3111  19.3083  27.9855  31.4818

          k = 0.5000-0.5000 0.2500 (   484 PWs)   bands (ev):

   -70.6311 -36.8303 -36.6759 -36.5782  13.3824  14.0949  15.4564  16.3405
    16.3411  21.2996  24.5884  30.9290

          k = 0.5000-0.6250 0.3750 (   483 PWs)   bands (ev):

   -70.6302 -36.7887 -36.6950 -36.6104  13.8863  14.2206  14.6560  16.3515
    16.3793  22.2310  26.3306  27.3489

          k = 0.0000 0.0000 0.5000 (   486 PWs)   bands (ev):

   -70.6376 -36.7124 -36.6539 -36.6539  12.7924  14.3804  15.6220  15.6220
    16.3273  17.3929  33.9233  33.9233

          k = 0.0000-0.1250 0.6250 (   476 PWs)   bands (ev):

   -70.6169 -36.7946 -36.6986 -36.6615  13.3162  13.7824  15.6367  16.0146
    17.1462  19.4830  28.7424  31.6769

          k = 0.0000 0.7500-0.2500 (   478 PWs)   bands (ev):

   -70.6086 -36.8360 -36.7177 -36.6576  13.2406  13.7265  15.5678  16.1107
    17.6282  22.2747  24.8696  30.7743

          k =-0.1250 0.8750-0.2500 (   468 PWs)   bands (ev):

   -70.6032 -36.8076 -36.7591 -36.6742  13.3241  13.3352  15.6862  16.7410
    17.3324  22.6849  26.9696  27.6687

          k = 0.5000-0.5000 0.5000 (   484 PWs)   bands (ev):

   -70.6289 -36.7026 -36.7026 -36.7026  14.3021  14.3021  14.3021  16.3569
    16.3569  25.7295  25.7295  25.7295

          k = 0.0000 0.0000 0.7500 (   474 PWs)   bands (ev):

   -70.5987 -36.7750 -36.7471 -36.7471  13.0735  13.1407  16.6857  16.6857
    17.1527  21.9663  29.1282  29.1282

          k = 0.0000 0.8750-0.1250 (   482 PWs)   bands (ev):

   -70.5916 -36.8016 -36.7674 -36.7494  12.8789  12.9111  16.8405  17.0078
    17.5380  25.1471  25.9759  28.0827

          k = 0.0000 0.0000-1.0000 (   490 PWs)   bands (ev):

   -70.5847 -36.7876 -36.7876 -36.7876  12.6385  12.6385  17.5008  17.5008
    17.5008  26.9704  26.9704  26.9704

 ------ SPIN DOWN ----------


          k = 0.0000 0.0000 0.0000 (   459 PWs)   bands (ev):

   -68.1468 -34.0207 -34.0207 -34.0207   9.1995  16.8638  16.8638  16.8638
    19.1067  19.1067  41.5270  41.5270

          k = 0.0000-0.1250 0.1250 (   475 PWs)   bands (ev):

   -68.1369 -34.0811 -34.0408 -34.0216   9.8233  16.6736  16.8188  17.2148
    18.9151  19.1229  38.5428  40.6368

          k = 0.0000-0.2500 0.2500 (   481 PWs)   bands (ev):

   -68.1120 -34.2219 -34.0884 -34.0225  11.5027  16.2349  16.6170  18.1354
    18.7267  19.1877  33.2380  38.1516

          k = 0.0000-0.3750 0.3750 (   476 PWs)   bands (ev):

   -68.0865 -34.3612 -34.1347 -34.0221  13.3003  15.8217  16.9083  18.8095
    19.1955  19.2920  28.1678  36.0767

          k = 0.0000 0.5000-0.5000 (   476 PWs)   bands (ev):

   -68.0760 -34.4177 -34.1537 -34.0221  13.8102  15.6573  17.9215  18.8755
    19.3480  19.6914  25.5691  35.3055

          k =-0.1250-0.1250 0.2500 (   474 PWs)   bands (ev):

   -68.1191 -34.1775 -34.0634 -34.0358  10.9909  16.4489  16.5320  17.9242
    18.6716  19.2177  35.7717  36.8685

          k =-0.1250-0.2500 0.3750 (   480 PWs)   bands (ev):

   -68.0940 -34.3026 -34.1204 -34.0416  12.8775  16.0158  16.3018  18.6358
    19.0354  19.4209  30.8158  34.3326

          k =-0.1250 0.6250-0.5000 (   479 PWs)   bands (ev):

   -68.0761 -34.3867 -34.1657 -34.0428  14.0501  15.7273  16.8396  18.8052
    19.3541  20.5419  26.4307  33.0637

          k =-0.2500 0.7500-0.5000 (   478 PWs)   bands (ev):

   -68.0761 -34.3456 -34.1880 -34.0626  14.4210  15.7258  16.0855  18.7171
    19.2690  21.0743  28.8304  29.4633

          k =-0.2500 0.6250-0.3750 (   476 PWs)   bands (ev):

   -68.0686 -34.3440 -34.2385 -34.0677  14.9070  15.6943  16.1463  18.8900
    19.2085  23.1484  25.6746  28.5674

          k = 0.0000 0.0000 0.2500 (   482 PWs)   bands (ev):

   -68.1271 -34.0962 -34.0615 -34.0615  10.4237  16.8556  16.8556  17.2206
    18.4138  19.3458  37.8682  39.7721

          k = 0.0000-0.1250 0.3750 (   472 PWs)   bands (ev):

   -68.1026 -34.2172 -34.1094 -34.0684  12.0367  16.5704  16.7084  18.0251
    18.0536  19.5215  33.6880  37.2293

          k = 0.0000-0.2500 0.5000 (   478 PWs)   bands (ev):

   -68.0785 -34.3486 -34.1573 -34.0656  13.7563  16.2085  16.4832  18.3282
    19.1349  19.9470  28.5030  35.4877

          k = 0.0000 0.6250-0.3750 (   476 PWs)   bands (ev):

   -68.0683 -34.4017 -34.1769 -34.0640  14.2538  16.0616  16.7565  18.4411
    19.6493  20.9273  25.6131  34.6469

          k =-0.1250-0.1250 0.5000 (   477 PWs)   bands (ev):

   -68.0794 -34.3003 -34.1683 -34.0932  13.6712  16.1942  16.6511  17.9324
    18.8321  20.0398  31.4471  31.9100

          k =-0.1250 0.7500-0.3750 (   474 PWs)   bands (ev):

   -68.0628 -34.3610 -34.2215 -34.0949  14.7851  15.9214  16.3938  18.3106
    19.2796  21.9208  26.8824  30.4004

          k =-0.2500 0.2500 0.2500 (   483 PWs)   bands (ev):

   -68.1006 -34.2814 -34.0698 -34.0698  12.5266  16.0010  16.0010  19.0497
    19.0497  19.1588  33.4697  33.4697

          k =-0.2500 0.7500-0.2500 (   475 PWs)   bands (ev):

   -68.0564 -34.3109 -34.3109 -34.1001  15.6351  15.6351  15.8837  18.8769
    18.8769  25.1922  25.1922  27.1648

          k = 0.6250-0.6250 0.2500 (   480 PWs)   bands (ev):

   -68.0816 -34.3435 -34.1436 -34.0748  14.2292  15.6221  15.9014  19.0569
    19.2905  20.7745  28.7207  31.9190

          k = 0.5000-0.5000 0.2500 (   484 PWs)   bands (ev):

   -68.0739 -34.3578 -34.1856 -34.0778  14.6000  15.4896  16.4421  19.1004
    19.3707  22.2819  25.6668  31.3529

          k = 0.5000-0.6250 0.3750 (   483 PWs)   bands (ev):

   -68.0729 -34.3114 -34.2074 -34.1133  15.1167  15.5399  15.7581  19.2260
    19.3426  23.2739  27.0857  28.0304

          k = 0.0000 0.0000 0.5000 (   486 PWs)   bands (ev):

   -68.0811 -34.2276 -34.1607 -34.1607  13.3544  16.7649  17.2309  17.2309
    18.1046  19.9318  34.4242  34.4242

          k = 0.0000-0.1250 0.6250 (   476 PWs)   bands (ev):

   -68.0588 -34.3175 -34.2102 -34.1698  14.6051  15.8563  17.2498  17.8208
    19.0014  21.1152  29.4715  32.1454

          k = 0.0000 0.7500-0.2500 (   478 PWs)   bands (ev):

   -68.0497 -34.3630 -34.2312 -34.1655  15.0079  15.5551  17.1733  17.9760
    19.5486  23.3196  25.8550  31.2028

          k =-0.1250 0.8750-0.2500 (   468 PWs)   bands (ev):

   -68.0439 -34.3314 -34.2773 -34.1839  15.1041  15.3027  17.2767  18.5505
    19.2320  23.7204  27.7492  28.2466

          k = 0.5000-0.5000 0.5000 (   484 PWs)   bands (ev):

   -68.0717 -34.2159 -34.2159 -34.2159  15.5064  15.5064  15.5064  19.3936
    19.3936  26.4581  26.4581  26.4581

          k = 0.0000 0.0000 0.7500 (   474 PWs)   bands (ev):

   -68.0391 -34.2957 -34.2636 -34.2636  14.8135  15.2016  18.4086  18.4086
    19.0200  22.9657  29.5199  29.5199

          k = 0.0000 0.8750-0.1250 (   482 PWs)   bands (ev):

   -68.0312 -34.3241 -34.2859 -34.2663  14.8263  14.8394  18.6127  18.7921
    19.4488  25.7804  26.5345  28.4006

          k = 0.0000 0.0000-1.0000 (   490 PWs)   bands (ev):

   -68.0238 -34.3081 -34.3081 -34.3081  14.5855  14.5855  19.4078  19.4078
    19.4078  27.1750  27.1750  27.1750

     the Fermi energy is    17.3326 ev

!    total energy              =    -329.26085507 Ry
     Harris-Foulkes estimate   =    -329.26085499 Ry
     estimated scf accuracy    <          4.2E-09 Ry

     total all-electron energy =     -2545.557391 Ry

     The total energy is the sum of the following terms:

     one-electron contribution =    -113.53328537 Ry
     hartree contribution      =      66.78879322 Ry
     xc contribution           =     -34.79376644 Ry
     ewald contribution        =    -171.57343704 Ry
     one-center paw contrib.   =     -76.14993990 Ry
     smearing contrib. (-TS)   =       0.00078046 Ry

     total magnetization       =     2.09 Bohr mag/cell
     absolute magnetization    =     2.23 Bohr mag/cell

     convergence has been achieved in  14 iterations

     Forces acting on atoms (Ry/au):


     negative rho (up, down):  0.000E+00 1.622E-04
     atom    1 type  1   force =     0.00000000    0.00000000    0.00000000

     Total force =     0.000000     Total SCF correction =     0.000000


     entering subroutine stress ...


     negative rho (up, down):  0.000E+00 1.622E-04
          total   stress  (Ry/bohr**3)                   (kbar)     P= -173.73
  -0.00118100  -0.00000000  -0.00000000       -173.73     -0.00     -0.00
  -0.00000000  -0.00118100  -0.00000000         -0.00   -173.73     -0.00
  -0.00000000  -0.00000000  -0.00118100         -0.00     -0.00   -173.73


     Writing output data file Fe_bcc.save

     init_run     :      1.62s CPU      1.75s WALL (       1 calls)
     electrons    :     25.69s CPU     26.46s WALL (       1 calls)
     forces       :      0.11s CPU      0.11s WALL (       1 calls)
     stress       :      0.50s CPU      0.52s WALL (       1 calls)

     Called by init_run:
     wfcinit      :      0.49s CPU      0.50s WALL (       1 calls)
     potinit      :      0.60s CPU      0.67s WALL (       1 calls)

     Called by electrons:
     c_bands      :     15.25s CPU     15.45s WALL (      14 calls)
     sum_band     :      2.85s CPU      2.92s WALL (      14 calls)
     v_of_rho     :      0.33s CPU      0.34s WALL (      15 calls)
     newd         :      0.24s CPU      0.27s WALL (      15 calls)
     mix_rho      :      0.04s CPU      0.04s WALL (      14 calls)

     Called by c_bands:
     init_us_2    :      0.32s CPU      0.33s WALL (    1798 calls)
     cegterg      :     14.64s CPU     14.82s WALL (     812 calls)

     Called by *egterg:
     h_psi        :     12.42s CPU     12.73s WALL (    2660 calls)
     s_psi        :      0.34s CPU      0.27s WALL (    2660 calls)
     g_psi        :      0.07s CPU      0.07s WALL (    1790 calls)
     cdiaghg      :      0.82s CPU      0.84s WALL (    2602 calls)

     Called by h_psi:
     add_vuspsi   :      0.36s CPU      0.31s WALL (    2660 calls)

     General routines
     calbec       :      0.38s CPU      0.39s WALL (    3588 calls)
     fft          :      0.17s CPU      0.18s WALL (     499 calls)
     ffts         :      0.02s CPU      0.02s WALL (      58 calls)
     fftw         :     12.65s CPU     12.96s WALL (   59170 calls)
     interpolate  :      0.05s CPU      0.05s WALL (      58 calls)
     davcio       :      0.00s CPU      0.00s WALL (      58 calls)


     PAW routines
     PAW_pot      :      7.54s CPU      8.07s WALL (      15 calls)
     PAW_symme    :      0.02s CPU      0.02s WALL (      29 calls)

     PWSCF        :    28.39s CPU        29.41s WALL


   This run was terminated on:  10:19:26  11May2015            

=------------------------------------------------------------------------------=
   JOB DONE.
=------------------------------------------------------------------------------=
