
     Program PWSCF v.5.1.2 starts on 11May2015 at 10:38:26 

     This program is part of the open-source Quantum ESPRESSO suite
     for quantum simulation of materials; please cite
         "P. Giannozzi et al., J. Phys.:Condens. Matter 21 395502 (2009);
          URL http://www.quantum-espresso.org", 
     in publications or presentations arising from this work. More details at
     http://www.quantum-espresso.org/quote

     Serial version
     Reading input from Fe_bcc_5.46_11.pw.in

     Current dimensions of program PWSCF are:
     Max number of different atomic species (ntypx) = 10
     Max number of k-points (npk) =  40000
     Max angular momentum in pseudopotentials (lmaxx) =  3
               file Fe.pbe-spn-kjpaw_psl.0.2.1.UPF: wavefunction(s)  3D renormalized

     G-vector sticks info
     --------------------
     sticks:   dense  smooth     PW     G-vecs:    dense   smooth      PW
     Sum         411     337    117                 5425     3925     767

     Generating pointlists ...
     new r_m :   0.3572 (alat units)  1.9505 (a.u.) for type    1


     bravais-lattice index     =            3
     lattice parameter (alat)  =       5.4600  a.u.
     unit-cell volume          =      81.3857 (a.u.)^3
     number of atoms/cell      =            1
     number of atomic types    =            1
     number of electrons       =        16.00
     number of Kohn-Sham states=           12
     kinetic-energy cutoff     =      50.0000  Ry
     charge density cutoff     =     250.0000  Ry
     convergence threshold     =      1.0E-08
     mixing beta               =       0.7000
     number of iterations used =            8  plain     mixing
     Exchange-correlation      =  SLA  PW   PBX  PBC ( 1  4  3  4 0 0)

     celldm(1)=   5.460000  celldm(2)=   0.000000  celldm(3)=   0.000000
     celldm(4)=   0.000000  celldm(5)=   0.000000  celldm(6)=   0.000000

     crystal axes: (cart. coord. in units of alat)
               a(1) = (   0.500000   0.500000   0.500000 )  
               a(2) = (  -0.500000   0.500000   0.500000 )  
               a(3) = (  -0.500000  -0.500000   0.500000 )  

     reciprocal axes: (cart. coord. in units 2 pi/alat)
               b(1) = (  1.000000  0.000000  1.000000 )  
               b(2) = ( -1.000000  1.000000  0.000000 )  
               b(3) = (  0.000000 -1.000000  1.000000 )  


     PseudoPot. # 1 for Fe read from file:
     ./Fe.pbe-spn-kjpaw_psl.0.2.1.UPF
     MD5 check sum: a0a08122d52b112de96d1da1d7dd020f
     Pseudo is Projector augmented-wave + core cor, Zval = 16.0
     Generated using "atomic" code by A. Dal Corso  v.5.0.2 svn rev. 9415
     Shape of augmentation charge: PSQ
     Using radial grid of 1191 points,  6 beta functions with: 
                l(1) =   0
                l(2) =   0
                l(3) =   1
                l(4) =   1
                l(5) =   2
                l(6) =   2
     Q(r) pseudized with 0 coefficients 


     atomic species   valence    mass     pseudopotential
        Fe            16.00    55.85000     Fe( 1.00)

     Starting magnetic structure 
     atomic species   magnetization
        Fe           0.700

     48 Sym. Ops., with inversion, found



   Cartesian axes

     site n.     atom                  positions (alat units)
         1           Fe  tau(   1) = (   0.0000000   0.0000000   0.0000000  )

     number of k points=   112  Marzari-Vanderbilt smearing, width (Ry)=  0.0250

     Number of k-points >= 100: set verbosity='high' to print them.

     Dense  grid:     5425 G-vectors     FFT dimensions: (  24,  24,  24)

     Smooth grid:     3925 G-vectors     FFT dimensions: (  24,  24,  24)

     Largest allocated arrays     est. size (Mb)     dimensions
        Kohn-Sham Wavefunctions         0.09 Mb     (     494,   12)
        NL pseudopotentials             0.14 Mb     (     494,   18)
        Each V/rho on FFT grid          0.42 Mb     (   13824,   2)
        Each G-vector array             0.04 Mb     (    5425)
        G-vector shells                 0.00 Mb     (      88)
     Largest temporary arrays     est. size (Mb)     dimensions
        Auxiliary wavefunctions         0.36 Mb     (     494,   48)
        Each subspace H/S matrix        0.04 Mb     (      48,   48)
        Each <psi_i|beta_j> matrix      0.00 Mb     (      18,   12)
        Arrays for rho mixing           1.69 Mb     (   13824,    8)

     Check: negative/imaginary core charge=   -0.000416    0.000000

     Initial potential from superposition of free atoms

     starting charge   15.99956, renormalised to   16.00000
     Starting wfc are   13 randomized atomic wfcs

     total cpu time spent up to now is        2.4 secs

     Self-consistent Calculation

     iteration #  1     ecut=    50.00 Ry     beta=0.70
     Davidson diagonalization with overlap
     ethr =  1.00E-02,  avg # of iterations =  3.2

     negative rho (up, down):  0.000E+00 3.647E-04

     Magnetic moment per site:
     atom:    1    charge:   14.3053    magn:    5.7273    constr:    0.0000

     total cpu time spent up to now is        5.6 secs

     total energy              =    -328.98598174 Ry
     Harris-Foulkes estimate   =    -328.07089651 Ry
     estimated scf accuracy    <       1.49718339 Ry

     total magnetization       =     3.89 Bohr mag/cell
     absolute magnetization    =     3.92 Bohr mag/cell

     iteration #  2     ecut=    50.00 Ry     beta=0.70
     Davidson diagonalization with overlap
     ethr =  9.36E-03,  avg # of iterations =  1.2

     negative rho (up, down):  0.000E+00 3.849E-04

     Magnetic moment per site:
     atom:    1    charge:   14.5382    magn:    3.5523    constr:    0.0000

     total cpu time spent up to now is        8.3 secs

     total energy              =    -329.15697975 Ry
     Harris-Foulkes estimate   =    -329.10453595 Ry
     estimated scf accuracy    <       0.35753105 Ry

     total magnetization       =     3.07 Bohr mag/cell
     absolute magnetization    =     3.20 Bohr mag/cell

     iteration #  3     ecut=    50.00 Ry     beta=0.70
     Davidson diagonalization with overlap
     ethr =  2.23E-03,  avg # of iterations =  2.1

     negative rho (up, down):  0.000E+00 3.986E-04

     Magnetic moment per site:
     atom:    1    charge:   14.4219    magn:    2.5313    constr:    0.0000

     total cpu time spent up to now is       11.3 secs

     total energy              =    -329.17716099 Ry
     Harris-Foulkes estimate   =    -329.34788269 Ry
     estimated scf accuracy    <       0.48949920 Ry

     total magnetization       =     2.60 Bohr mag/cell
     absolute magnetization    =     2.74 Bohr mag/cell

     iteration #  4     ecut=    50.00 Ry     beta=0.70
     Davidson diagonalization with overlap
     ethr =  2.23E-03,  avg # of iterations =  2.0

     negative rho (up, down):  0.000E+00 2.592E-04

     Magnetic moment per site:
     atom:    1    charge:   14.4534    magn:    2.3989    constr:    0.0000

     total cpu time spent up to now is       14.1 secs

     total energy              =    -329.25718937 Ry
     Harris-Foulkes estimate   =    -329.25644932 Ry
     estimated scf accuracy    <       0.00148760 Ry

     total magnetization       =     2.39 Bohr mag/cell
     absolute magnetization    =     2.57 Bohr mag/cell

     iteration #  5     ecut=    50.00 Ry     beta=0.70
     Davidson diagonalization with overlap
     ethr =  9.30E-06,  avg # of iterations =  3.5

     negative rho (up, down):  0.000E+00 2.576E-04

     Magnetic moment per site:
     atom:    1    charge:   14.4515    magn:    2.3803    constr:    0.0000

     total cpu time spent up to now is       17.6 secs

     total energy              =    -329.26013060 Ry
     Harris-Foulkes estimate   =    -329.25986752 Ry
     estimated scf accuracy    <       0.00057854 Ry

     total magnetization       =     2.27 Bohr mag/cell
     absolute magnetization    =     2.42 Bohr mag/cell

     iteration #  6     ecut=    50.00 Ry     beta=0.70
     Davidson diagonalization with overlap
     ethr =  3.62E-06,  avg # of iterations =  1.1

     negative rho (up, down):  0.000E+00 2.862E-04

     Magnetic moment per site:
     atom:    1    charge:   14.4534    magn:    2.4483    constr:    0.0000

     total cpu time spent up to now is       20.0 secs

     total energy              =    -329.25939162 Ry
     Harris-Foulkes estimate   =    -329.26016956 Ry
     estimated scf accuracy    <       0.00050653 Ry

     total magnetization       =     2.24 Bohr mag/cell
     absolute magnetization    =     2.40 Bohr mag/cell

     iteration #  7     ecut=    50.00 Ry     beta=0.70
     Davidson diagonalization with overlap
     ethr =  3.17E-06,  avg # of iterations =  1.0

     negative rho (up, down):  0.000E+00 1.828E-04

     Magnetic moment per site:
     atom:    1    charge:   14.4430    magn:    2.1901    constr:    0.0000

     total cpu time spent up to now is       22.4 secs

     total energy              =    -329.25920120 Ry
     Harris-Foulkes estimate   =    -329.25947237 Ry
     estimated scf accuracy    <       0.00094052 Ry

     total magnetization       =     2.28 Bohr mag/cell
     absolute magnetization    =     2.45 Bohr mag/cell

     iteration #  8     ecut=    50.00 Ry     beta=0.70
     Davidson diagonalization with overlap
     ethr =  3.17E-06,  avg # of iterations =  2.0

     negative rho (up, down):  0.000E+00 1.852E-04

     Magnetic moment per site:
     atom:    1    charge:   14.4423    magn:    2.2068    constr:    0.0000

     total cpu time spent up to now is       25.5 secs

     total energy              =    -329.26080839 Ry
     Harris-Foulkes estimate   =    -329.26056368 Ry
     estimated scf accuracy    <       0.00003539 Ry

     total magnetization       =     2.16 Bohr mag/cell
     absolute magnetization    =     2.30 Bohr mag/cell

     iteration #  9     ecut=    50.00 Ry     beta=0.70
     Davidson diagonalization with overlap
     ethr =  2.21E-07,  avg # of iterations =  1.9

     negative rho (up, down):  0.000E+00 1.911E-04

     Magnetic moment per site:
     atom:    1    charge:   14.4432    magn:    2.2243    constr:    0.0000

     total cpu time spent up to now is       28.3 secs

     total energy              =    -329.26085534 Ry
     Harris-Foulkes estimate   =    -329.26081928 Ry
     estimated scf accuracy    <       0.00000330 Ry

     total magnetization       =     2.16 Bohr mag/cell
     absolute magnetization    =     2.29 Bohr mag/cell

     iteration # 10     ecut=    50.00 Ry     beta=0.70
     Davidson diagonalization with overlap
     ethr =  2.07E-08,  avg # of iterations =  2.4

     negative rho (up, down):  0.000E+00 1.912E-04

     Magnetic moment per site:
     atom:    1    charge:   14.4432    magn:    2.2227    constr:    0.0000

     total cpu time spent up to now is       31.5 secs

     total energy              =    -329.26085975 Ry
     Harris-Foulkes estimate   =    -329.26085695 Ry
     estimated scf accuracy    <       0.00000170 Ry

     total magnetization       =     2.16 Bohr mag/cell
     absolute magnetization    =     2.30 Bohr mag/cell

     iteration # 11     ecut=    50.00 Ry     beta=0.70
     Davidson diagonalization with overlap
     ethr =  1.06E-08,  avg # of iterations =  1.4

     negative rho (up, down):  0.000E+00 1.893E-04

     Magnetic moment per site:
     atom:    1    charge:   14.4430    magn:    2.2158    constr:    0.0000

     total cpu time spent up to now is       34.8 secs

     total energy              =    -329.26086092 Ry
     Harris-Foulkes estimate   =    -329.26086015 Ry
     estimated scf accuracy    <       0.00000124 Ry

     total magnetization       =     2.16 Bohr mag/cell
     absolute magnetization    =     2.30 Bohr mag/cell

     iteration # 12     ecut=    50.00 Ry     beta=0.70
     Davidson diagonalization with overlap
     ethr =  7.75E-09,  avg # of iterations =  1.5

     negative rho (up, down):  0.000E+00 1.892E-04

     Magnetic moment per site:
     atom:    1    charge:   14.4430    magn:    2.2155    constr:    0.0000

     total cpu time spent up to now is       37.8 secs

     total energy              =    -329.26086205 Ry
     Harris-Foulkes estimate   =    -329.26086175 Ry
     estimated scf accuracy    <       0.00000008 Ry

     total magnetization       =     2.16 Bohr mag/cell
     absolute magnetization    =     2.29 Bohr mag/cell

     iteration # 13     ecut=    50.00 Ry     beta=0.70
     Davidson diagonalization with overlap
     ethr =  4.69E-10,  avg # of iterations =  2.4

     negative rho (up, down):  0.000E+00 1.889E-04

     Magnetic moment per site:
     atom:    1    charge:   14.4430    magn:    2.2147    constr:    0.0000

     total cpu time spent up to now is       40.8 secs

     total energy              =    -329.26086213 Ry
     Harris-Foulkes estimate   =    -329.26086211 Ry
     estimated scf accuracy    <       0.00000002 Ry

     total magnetization       =     2.16 Bohr mag/cell
     absolute magnetization    =     2.29 Bohr mag/cell

     iteration # 14     ecut=    50.00 Ry     beta=0.70
     Davidson diagonalization with overlap
     ethr =  1.47E-10,  avg # of iterations =  2.1

     negative rho (up, down):  0.000E+00 1.890E-04

     Magnetic moment per site:
     atom:    1    charge:   14.4430    magn:    2.2151    constr:    0.0000

     total cpu time spent up to now is       44.9 secs

     End of self-consistent calculation

     Number of k-points >= 100: set verbosity='high' to print the bands.

     the Fermi energy is    16.9610 ev

!    total energy              =    -329.26086222 Ry
     Harris-Foulkes estimate   =    -329.26086217 Ry
     estimated scf accuracy    <          5.2E-09 Ry

     total all-electron energy =     -2545.557398 Ry

     The total energy is the sum of the following terms:

     one-electron contribution =    -115.05101105 Ry
     hartree contribution      =      67.35837279 Ry
     xc contribution           =     -34.78957945 Ry
     ewald contribution        =    -170.63072585 Ry
     one-center paw contrib.   =     -76.14937216 Ry
     smearing contrib. (-TS)   =       0.00145349 Ry

     total magnetization       =     2.16 Bohr mag/cell
     absolute magnetization    =     2.29 Bohr mag/cell

     convergence has been achieved in  14 iterations

     Forces acting on atoms (Ry/au):


     negative rho (up, down):  0.000E+00 1.890E-04
     atom    1 type  1   force =     0.00000000    0.00000000    0.00000000

     Total force =     0.000000     Total SCF correction =     0.000000


     entering subroutine stress ...


     negative rho (up, down):  0.000E+00 1.890E-04
          total   stress  (Ry/bohr**3)                   (kbar)     P= -190.32
  -0.00129375  -0.00000000   0.00000000       -190.32     -0.00      0.00
  -0.00000000  -0.00129375   0.00000000         -0.00   -190.32      0.00
   0.00000000   0.00000000  -0.00129375          0.00      0.00   -190.32


     Writing output data file Fe_bcc.save

     init_run     :      1.89s CPU      1.95s WALL (       1 calls)
     electrons    :     40.70s CPU     42.56s WALL (       1 calls)
     forces       :      0.16s CPU      0.17s WALL (       1 calls)
     stress       :      0.76s CPU      0.79s WALL (       1 calls)

     Called by init_run:
     wfcinit      :      0.87s CPU      0.87s WALL (       1 calls)
     potinit      :      0.51s CPU      0.53s WALL (       1 calls)

     Called by electrons:
     c_bands      :     27.92s CPU     28.90s WALL (      14 calls)
     sum_band     :      5.20s CPU      5.65s WALL (      14 calls)
     v_of_rho     :      0.33s CPU      0.35s WALL (      15 calls)
     newd         :      0.24s CPU      0.26s WALL (      15 calls)
     mix_rho      :      0.05s CPU      0.07s WALL (      14 calls)

     Called by c_bands:
     init_us_2    :      0.65s CPU      0.67s WALL (    3472 calls)
     cegterg      :     26.69s CPU     27.61s WALL (    1568 calls)

     Called by *egterg:
     h_psi        :     22.81s CPU     23.77s WALL (    4779 calls)
     s_psi        :      0.63s CPU      0.52s WALL (    4779 calls)
     g_psi        :      0.13s CPU      0.13s WALL (    3099 calls)
     cdiaghg      :      1.37s CPU      1.42s WALL (    4667 calls)

     Called by h_psi:
     add_vuspsi   :      0.66s CPU      0.58s WALL (    4779 calls)

     General routines
     calbec       :      0.72s CPU      0.76s WALL (    6571 calls)
     fft          :      0.18s CPU      0.20s WALL (     499 calls)
     ffts         :      0.02s CPU      0.02s WALL (      58 calls)
     fftw         :     23.29s CPU     24.42s WALL (  109584 calls)
     interpolate  :      0.04s CPU      0.05s WALL (      58 calls)
     davcio       :      0.00s CPU      0.00s WALL (     112 calls)


     PAW routines
     PAW_pot      :      7.45s CPU      7.81s WALL (      15 calls)
     PAW_symme    :      0.02s CPU      0.02s WALL (      29 calls)

     PWSCF        :    44.08s CPU        46.12s WALL


   This run was terminated on:  10:39:12  11May2015            

=------------------------------------------------------------------------------=
   JOB DONE.
=------------------------------------------------------------------------------=
