
     Program PWSCF v.5.1.2 starts on 11May2015 at 10:35:52 

     This program is part of the open-source Quantum ESPRESSO suite
     for quantum simulation of materials; please cite
         "P. Giannozzi et al., J. Phys.:Condens. Matter 21 395502 (2009);
          URL http://www.quantum-espresso.org", 
     in publications or presentations arising from this work. More details at
     http://www.quantum-espresso.org/quote

     Serial version
     Reading input from Fe_bcc_5.43_11.pw.in

     Current dimensions of program PWSCF are:
     Max number of different atomic species (ntypx) = 10
     Max number of k-points (npk) =  40000
     Max angular momentum in pseudopotentials (lmaxx) =  3
               file Fe.pbe-spn-kjpaw_psl.0.2.1.UPF: wavefunction(s)  3D renormalized

     G-vector sticks info
     --------------------
     sticks:   dense  smooth     PW     G-vecs:    dense   smooth      PW
     Sum         411     333    117                 5425     3805     767

     Generating pointlists ...
     new r_m :   0.3572 (alat units)  1.9398 (a.u.) for type    1


     bravais-lattice index     =            3
     lattice parameter (alat)  =       5.4300  a.u.
     unit-cell volume          =      80.0515 (a.u.)^3
     number of atoms/cell      =            1
     number of atomic types    =            1
     number of electrons       =        16.00
     number of Kohn-Sham states=           12
     kinetic-energy cutoff     =      50.0000  Ry
     charge density cutoff     =     250.0000  Ry
     convergence threshold     =      1.0E-08
     mixing beta               =       0.7000
     number of iterations used =            8  plain     mixing
     Exchange-correlation      =  SLA  PW   PBX  PBC ( 1  4  3  4 0 0)

     celldm(1)=   5.430000  celldm(2)=   0.000000  celldm(3)=   0.000000
     celldm(4)=   0.000000  celldm(5)=   0.000000  celldm(6)=   0.000000

     crystal axes: (cart. coord. in units of alat)
               a(1) = (   0.500000   0.500000   0.500000 )  
               a(2) = (  -0.500000   0.500000   0.500000 )  
               a(3) = (  -0.500000  -0.500000   0.500000 )  

     reciprocal axes: (cart. coord. in units 2 pi/alat)
               b(1) = (  1.000000  0.000000  1.000000 )  
               b(2) = ( -1.000000  1.000000  0.000000 )  
               b(3) = (  0.000000 -1.000000  1.000000 )  


     PseudoPot. # 1 for Fe read from file:
     ./Fe.pbe-spn-kjpaw_psl.0.2.1.UPF
     MD5 check sum: a0a08122d52b112de96d1da1d7dd020f
     Pseudo is Projector augmented-wave + core cor, Zval = 16.0
     Generated using "atomic" code by A. Dal Corso  v.5.0.2 svn rev. 9415
     Shape of augmentation charge: PSQ
     Using radial grid of 1191 points,  6 beta functions with: 
                l(1) =   0
                l(2) =   0
                l(3) =   1
                l(4) =   1
                l(5) =   2
                l(6) =   2
     Q(r) pseudized with 0 coefficients 


     atomic species   valence    mass     pseudopotential
        Fe            16.00    55.85000     Fe( 1.00)

     Starting magnetic structure 
     atomic species   magnetization
        Fe           0.700

     48 Sym. Ops., with inversion, found



   Cartesian axes

     site n.     atom                  positions (alat units)
         1           Fe  tau(   1) = (   0.0000000   0.0000000   0.0000000  )

     number of k points=   112  Marzari-Vanderbilt smearing, width (Ry)=  0.0250

     Number of k-points >= 100: set verbosity='high' to print them.

     Dense  grid:     5425 G-vectors     FFT dimensions: (  24,  24,  24)

     Smooth grid:     3805 G-vectors     FFT dimensions: (  24,  24,  24)

     Largest allocated arrays     est. size (Mb)     dimensions
        Kohn-Sham Wavefunctions         0.09 Mb     (     488,   12)
        NL pseudopotentials             0.13 Mb     (     488,   18)
        Each V/rho on FFT grid          0.42 Mb     (   13824,   2)
        Each G-vector array             0.04 Mb     (    5425)
        G-vector shells                 0.00 Mb     (      88)
     Largest temporary arrays     est. size (Mb)     dimensions
        Auxiliary wavefunctions         0.36 Mb     (     488,   48)
        Each subspace H/S matrix        0.04 Mb     (      48,   48)
        Each <psi_i|beta_j> matrix      0.00 Mb     (      18,   12)
        Arrays for rho mixing           1.69 Mb     (   13824,    8)

     Check: negative/imaginary core charge=   -0.000432    0.000000

     Initial potential from superposition of free atoms

     starting charge   15.99956, renormalised to   16.00000
     Starting wfc are   13 randomized atomic wfcs

     total cpu time spent up to now is        2.4 secs

     Self-consistent Calculation

     iteration #  1     ecut=    50.00 Ry     beta=0.70
     Davidson diagonalization with overlap
     ethr =  1.00E-02,  avg # of iterations =  3.2

     negative rho (up, down):  0.000E+00 3.529E-04

     Magnetic moment per site:
     atom:    1    charge:   14.2943    magn:    5.7190    constr:    0.0000

     total cpu time spent up to now is        5.9 secs

     total energy              =    -328.98277522 Ry
     Harris-Foulkes estimate   =    -328.06524945 Ry
     estimated scf accuracy    <       1.50098260 Ry

     total magnetization       =     3.89 Bohr mag/cell
     absolute magnetization    =     3.91 Bohr mag/cell

     iteration #  2     ecut=    50.00 Ry     beta=0.70
     Davidson diagonalization with overlap
     ethr =  9.38E-03,  avg # of iterations =  1.2

     negative rho (up, down):  0.000E+00 3.726E-04

     Magnetic moment per site:
     atom:    1    charge:   14.5264    magn:    3.5248    constr:    0.0000

     total cpu time spent up to now is        9.2 secs

     total energy              =    -329.15919783 Ry
     Harris-Foulkes estimate   =    -329.10247255 Ry
     estimated scf accuracy    <       0.35425173 Ry

     total magnetization       =     3.06 Bohr mag/cell
     absolute magnetization    =     3.19 Bohr mag/cell

     iteration #  3     ecut=    50.00 Ry     beta=0.70
     Davidson diagonalization with overlap
     ethr =  2.21E-03,  avg # of iterations =  2.1

     negative rho (up, down):  0.000E+00 3.813E-04

     Magnetic moment per site:
     atom:    1    charge:   14.4101    magn:    2.5058    constr:    0.0000

     total cpu time spent up to now is       12.2 secs

     total energy              =    -329.17946190 Ry
     Harris-Foulkes estimate   =    -329.34654831 Ry
     estimated scf accuracy    <       0.48061839 Ry

     total magnetization       =     2.56 Bohr mag/cell
     absolute magnetization    =     2.70 Bohr mag/cell

     iteration #  4     ecut=    50.00 Ry     beta=0.70
     Davidson diagonalization with overlap
     ethr =  2.21E-03,  avg # of iterations =  2.0

     negative rho (up, down):  0.000E+00 2.353E-04

     Magnetic moment per site:
     atom:    1    charge:   14.4402    magn:    2.3283    constr:    0.0000

     total cpu time spent up to now is       15.1 secs

     total energy              =    -329.25799630 Ry
     Harris-Foulkes estimate   =    -329.25717933 Ry
     estimated scf accuracy    <       0.00176609 Ry

     total magnetization       =     2.34 Bohr mag/cell
     absolute magnetization    =     2.52 Bohr mag/cell

     iteration #  5     ecut=    50.00 Ry     beta=0.70
     Davidson diagonalization with overlap
     ethr =  1.10E-05,  avg # of iterations =  3.4

     negative rho (up, down):  0.000E+00 2.241E-04

     Magnetic moment per site:
     atom:    1    charge:   14.4348    magn:    2.2890    constr:    0.0000

     total cpu time spent up to now is       18.9 secs

     total energy              =    -329.26120369 Ry
     Harris-Foulkes estimate   =    -329.26092367 Ry
     estimated scf accuracy    <       0.00054065 Ry

     total magnetization       =     2.21 Bohr mag/cell
     absolute magnetization    =     2.37 Bohr mag/cell

     iteration #  6     ecut=    50.00 Ry     beta=0.70
     Davidson diagonalization with overlap
     ethr =  3.38E-06,  avg # of iterations =  1.4

     negative rho (up, down):  0.000E+00 1.325E-04

     Magnetic moment per site:
     atom:    1    charge:   14.4242    magn:    2.1127    constr:    0.0000

     total cpu time spent up to now is       22.7 secs

     total energy              =    -329.26046763 Ry
     Harris-Foulkes estimate   =    -329.26130763 Ry
     estimated scf accuracy    <       0.00025790 Ry

     total magnetization       =     2.19 Bohr mag/cell
     absolute magnetization    =     2.34 Bohr mag/cell

     iteration #  7     ecut=    50.00 Ry     beta=0.70
     Davidson diagonalization with overlap
     ethr =  1.61E-06,  avg # of iterations =  2.6

     negative rho (up, down):  0.000E+00 1.827E-04

     Magnetic moment per site:
     atom:    1    charge:   14.4296    magn:    2.2228    constr:    0.0000

     total cpu time spent up to now is       26.0 secs

     total energy              =    -329.26154527 Ry
     Harris-Foulkes estimate   =    -329.26117409 Ry
     estimated scf accuracy    <       0.00029176 Ry

     total magnetization       =     2.13 Bohr mag/cell
     absolute magnetization    =     2.25 Bohr mag/cell

     iteration #  8     ecut=    50.00 Ry     beta=0.70
     Davidson diagonalization with overlap
     ethr =  1.61E-06,  avg # of iterations =  1.8

     negative rho (up, down):  0.000E+00 1.811E-04

     Magnetic moment per site:
     atom:    1    charge:   14.4302    magn:    2.2182    constr:    0.0000

     total cpu time spent up to now is       28.6 secs

     total energy              =    -329.26169389 Ry
     Harris-Foulkes estimate   =    -329.26168435 Ry
     estimated scf accuracy    <       0.00001509 Ry

     total magnetization       =     2.16 Bohr mag/cell
     absolute magnetization    =     2.29 Bohr mag/cell

     iteration #  9     ecut=    50.00 Ry     beta=0.70
     Davidson diagonalization with overlap
     ethr =  9.43E-08,  avg # of iterations =  2.1

     negative rho (up, down):  0.000E+00 1.823E-04

     Magnetic moment per site:
     atom:    1    charge:   14.4302    magn:    2.2169    constr:    0.0000

     total cpu time spent up to now is       31.3 secs

     total energy              =    -329.26169962 Ry
     Harris-Foulkes estimate   =    -329.26169745 Ry
     estimated scf accuracy    <       0.00000544 Ry

     total magnetization       =     2.16 Bohr mag/cell
     absolute magnetization    =     2.29 Bohr mag/cell

     iteration # 10     ecut=    50.00 Ry     beta=0.70
     Davidson diagonalization with overlap
     ethr =  3.40E-08,  avg # of iterations =  1.1

     negative rho (up, down):  0.000E+00 1.785E-04

     Magnetic moment per site:
     atom:    1    charge:   14.4298    magn:    2.2064    constr:    0.0000

     total cpu time spent up to now is       33.8 secs

     total energy              =    -329.26170162 Ry
     Harris-Foulkes estimate   =    -329.26170011 Ry
     estimated scf accuracy    <       0.00000335 Ry

     total magnetization       =     2.16 Bohr mag/cell
     absolute magnetization    =     2.28 Bohr mag/cell

     iteration # 11     ecut=    50.00 Ry     beta=0.70
     Davidson diagonalization with overlap
     ethr =  2.10E-08,  avg # of iterations =  1.6

     negative rho (up, down):  0.000E+00 1.786E-04

     Magnetic moment per site:
     atom:    1    charge:   14.4298    magn:    2.2064    constr:    0.0000

     total cpu time spent up to now is       36.5 secs

     total energy              =    -329.26170355 Ry
     Harris-Foulkes estimate   =    -329.26170324 Ry
     estimated scf accuracy    <       0.00000004 Ry

     total magnetization       =     2.15 Bohr mag/cell
     absolute magnetization    =     2.28 Bohr mag/cell

     iteration # 12     ecut=    50.00 Ry     beta=0.70
     Davidson diagonalization with overlap
     ethr =  2.31E-10,  avg # of iterations =  2.6

     negative rho (up, down):  0.000E+00 1.789E-04

     Magnetic moment per site:
     atom:    1    charge:   14.4298    magn:    2.2065    constr:    0.0000

     total cpu time spent up to now is       39.6 secs

     total energy              =    -329.26170351 Ry
     Harris-Foulkes estimate   =    -329.26170357 Ry
     estimated scf accuracy    <       0.00000005 Ry

     total magnetization       =     2.15 Bohr mag/cell
     absolute magnetization    =     2.28 Bohr mag/cell

     iteration # 13     ecut=    50.00 Ry     beta=0.70
     Davidson diagonalization with overlap
     ethr =  2.31E-10,  avg # of iterations =  1.0

     negative rho (up, down):  0.000E+00 1.781E-04

     Magnetic moment per site:
     atom:    1    charge:   14.4298    magn:    2.2055    constr:    0.0000

     total cpu time spent up to now is       42.1 secs

     total energy              =    -329.26170362 Ry
     Harris-Foulkes estimate   =    -329.26170351 Ry
     estimated scf accuracy    <       0.00000010 Ry

     total magnetization       =     2.15 Bohr mag/cell
     absolute magnetization    =     2.28 Bohr mag/cell

     iteration # 14     ecut=    50.00 Ry     beta=0.70
     Davidson diagonalization with overlap
     ethr =  2.31E-10,  avg # of iterations =  2.0

     negative rho (up, down):  0.000E+00 1.776E-04

     Magnetic moment per site:
     atom:    1    charge:   14.4297    magn:    2.2044    constr:    0.0000

     total cpu time spent up to now is       45.5 secs

     total energy              =    -329.26170349 Ry
     Harris-Foulkes estimate   =    -329.26170367 Ry
     estimated scf accuracy    <       0.00000001 Ry

     total magnetization       =     2.15 Bohr mag/cell
     absolute magnetization    =     2.28 Bohr mag/cell

     iteration # 15     ecut=    50.00 Ry     beta=0.70
     Davidson diagonalization with overlap
     ethr =  6.36E-11,  avg # of iterations =  2.1

     negative rho (up, down):  0.000E+00 1.781E-04

     Magnetic moment per site:
     atom:    1    charge:   14.4298    magn:    2.2051    constr:    0.0000

     total cpu time spent up to now is       48.8 secs

     total energy              =    -329.26170366 Ry
     Harris-Foulkes estimate   =    -329.26170354 Ry
     estimated scf accuracy    <       0.00000006 Ry

     total magnetization       =     2.15 Bohr mag/cell
     absolute magnetization    =     2.28 Bohr mag/cell

     iteration # 16     ecut=    50.00 Ry     beta=0.70
     Davidson diagonalization with overlap
     ethr =  6.36E-11,  avg # of iterations =  2.0

     negative rho (up, down):  0.000E+00 1.782E-04

     Magnetic moment per site:
     atom:    1    charge:   14.4298    magn:    2.2052    constr:    0.0000

     total cpu time spent up to now is       51.8 secs

     End of self-consistent calculation

     Number of k-points >= 100: set verbosity='high' to print the bands.

     the Fermi energy is    17.3279 ev

!    total energy              =    -329.26170368 Ry
     Harris-Foulkes estimate   =    -329.26170368 Ry
     estimated scf accuracy    <          9.4E-10 Ry

     total all-electron energy =     -2545.558239 Ry

     The total energy is the sum of the following terms:

     one-electron contribution =    -113.54319905 Ry
     hartree contribution      =      66.80336657 Ry
     xc contribution           =     -34.79975880 Ry
     ewald contribution        =    -171.57343704 Ry
     one-center paw contrib.   =     -76.14986118 Ry
     smearing contrib. (-TS)   =       0.00118581 Ry

     total magnetization       =     2.15 Bohr mag/cell
     absolute magnetization    =     2.28 Bohr mag/cell

     convergence has been achieved in  16 iterations

     Forces acting on atoms (Ry/au):


     negative rho (up, down):  0.000E+00 1.782E-04
     atom    1 type  1   force =     0.00000000    0.00000000    0.00000000

     Total force =     0.000000     Total SCF correction =     0.000000


     entering subroutine stress ...


     negative rho (up, down):  0.000E+00 1.782E-04
          total   stress  (Ry/bohr**3)                   (kbar)     P= -164.27
  -0.00111668   0.00000000  -0.00000000       -164.27      0.00     -0.00
   0.00000000  -0.00111668   0.00000000          0.00   -164.27      0.00
  -0.00000000   0.00000000  -0.00111668         -0.00      0.00   -164.27


     Writing output data file Fe_bcc.save

     init_run     :      1.90s CPU      1.94s WALL (       1 calls)
     electrons    :     47.47s CPU     49.40s WALL (       1 calls)
     forces       :      0.16s CPU      0.16s WALL (       1 calls)
     stress       :      0.62s CPU      0.63s WALL (       1 calls)

     Called by init_run:
     wfcinit      :      0.88s CPU      0.89s WALL (       1 calls)
     potinit      :      0.49s CPU      0.51s WALL (       1 calls)

     Called by electrons:
     c_bands      :     32.98s CPU     34.24s WALL (      16 calls)
     sum_band     :      6.01s CPU      6.28s WALL (      16 calls)
     v_of_rho     :      0.38s CPU      0.40s WALL (      17 calls)
     newd         :      0.28s CPU      0.31s WALL (      17 calls)
     mix_rho      :      0.05s CPU      0.07s WALL (      16 calls)

     Called by c_bands:
     init_us_2    :      0.70s CPU      0.73s WALL (    3920 calls)
     cegterg      :     31.62s CPU     32.79s WALL (    1792 calls)

     Called by *egterg:
     h_psi        :     26.82s CPU     28.16s WALL (    5534 calls)
     s_psi        :      0.77s CPU      0.60s WALL (    5534 calls)
     g_psi        :      0.15s CPU      0.16s WALL (    3630 calls)
     cdiaghg      :      1.63s CPU      1.70s WALL (    5422 calls)

     Called by h_psi:
     add_vuspsi   :      0.80s CPU      0.67s WALL (    5534 calls)

     General routines
     calbec       :      0.80s CPU      0.84s WALL (    7550 calls)
     fft          :      0.20s CPU      0.22s WALL (     561 calls)
     ffts         :      0.02s CPU      0.03s WALL (      66 calls)
     fftw         :     27.51s CPU     28.94s WALL (  128004 calls)
     interpolate  :      0.06s CPU      0.07s WALL (      66 calls)
     davcio       :      0.00s CPU      0.00s WALL (     112 calls)


     PAW routines
     PAW_pot      :      8.21s CPU      8.56s WALL (      17 calls)
     PAW_symme    :      0.02s CPU      0.03s WALL (      33 calls)

     PWSCF        :    50.76s CPU        52.84s WALL


   This run was terminated on:  10:36:44  11May2015            

=------------------------------------------------------------------------------=
   JOB DONE.
=------------------------------------------------------------------------------=
