
     Program PWSCF v.5.1.2 starts on 11May2015 at 10:40:50 

     This program is part of the open-source Quantum ESPRESSO suite
     for quantum simulation of materials; please cite
         "P. Giannozzi et al., J. Phys.:Condens. Matter 21 395502 (2009);
          URL http://www.quantum-espresso.org", 
     in publications or presentations arising from this work. More details at
     http://www.quantum-espresso.org/quote

     Serial version
     Reading input from Fe_bcc_5.4_12.pw.in

     Current dimensions of program PWSCF are:
     Max number of different atomic species (ntypx) = 10
     Max number of k-points (npk) =  40000
     Max angular momentum in pseudopotentials (lmaxx) =  3
               file Fe.pbe-spn-kjpaw_psl.0.2.1.UPF: wavefunction(s)  3D renormalized

     G-vector sticks info
     --------------------
     sticks:   dense  smooth     PW     G-vecs:    dense   smooth      PW
     Sum         411     333    117                 5281     3781     767

     Generating pointlists ...
     new r_m :   0.3572 (alat units)  1.9291 (a.u.) for type    1


     bravais-lattice index     =            3
     lattice parameter (alat)  =       5.4000  a.u.
     unit-cell volume          =      78.7320 (a.u.)^3
     number of atoms/cell      =            1
     number of atomic types    =            1
     number of electrons       =        16.00
     number of Kohn-Sham states=           12
     kinetic-energy cutoff     =      50.0000  Ry
     charge density cutoff     =     250.0000  Ry
     convergence threshold     =      1.0E-08
     mixing beta               =       0.7000
     number of iterations used =            8  plain     mixing
     Exchange-correlation      =  SLA  PW   PBX  PBC ( 1  4  3  4 0 0)

     celldm(1)=   5.400000  celldm(2)=   0.000000  celldm(3)=   0.000000
     celldm(4)=   0.000000  celldm(5)=   0.000000  celldm(6)=   0.000000

     crystal axes: (cart. coord. in units of alat)
               a(1) = (   0.500000   0.500000   0.500000 )  
               a(2) = (  -0.500000   0.500000   0.500000 )  
               a(3) = (  -0.500000  -0.500000   0.500000 )  

     reciprocal axes: (cart. coord. in units 2 pi/alat)
               b(1) = (  1.000000  0.000000  1.000000 )  
               b(2) = ( -1.000000  1.000000  0.000000 )  
               b(3) = (  0.000000 -1.000000  1.000000 )  


     PseudoPot. # 1 for Fe read from file:
     ./Fe.pbe-spn-kjpaw_psl.0.2.1.UPF
     MD5 check sum: a0a08122d52b112de96d1da1d7dd020f
     Pseudo is Projector augmented-wave + core cor, Zval = 16.0
     Generated using "atomic" code by A. Dal Corso  v.5.0.2 svn rev. 9415
     Shape of augmentation charge: PSQ
     Using radial grid of 1191 points,  6 beta functions with: 
                l(1) =   0
                l(2) =   0
                l(3) =   1
                l(4) =   1
                l(5) =   2
                l(6) =   2
     Q(r) pseudized with 0 coefficients 


     atomic species   valence    mass     pseudopotential
        Fe            16.00    55.85000     Fe( 1.00)

     Starting magnetic structure 
     atomic species   magnetization
        Fe           0.700

     48 Sym. Ops., with inversion, found



   Cartesian axes

     site n.     atom                  positions (alat units)
         1           Fe  tau(   1) = (   0.0000000   0.0000000   0.0000000  )

     number of k points=   144  Marzari-Vanderbilt smearing, width (Ry)=  0.0250

     Number of k-points >= 100: set verbosity='high' to print them.

     Dense  grid:     5281 G-vectors     FFT dimensions: (  24,  24,  24)

     Smooth grid:     3781 G-vectors     FFT dimensions: (  24,  24,  24)

     Largest allocated arrays     est. size (Mb)     dimensions
        Kohn-Sham Wavefunctions         0.09 Mb     (     484,   12)
        NL pseudopotentials             0.13 Mb     (     484,   18)
        Each V/rho on FFT grid          0.42 Mb     (   13824,   2)
        Each G-vector array             0.04 Mb     (    5281)
        G-vector shells                 0.00 Mb     (      87)
     Largest temporary arrays     est. size (Mb)     dimensions
        Auxiliary wavefunctions         0.35 Mb     (     484,   48)
        Each subspace H/S matrix        0.04 Mb     (      48,   48)
        Each <psi_i|beta_j> matrix      0.00 Mb     (      18,   12)
        Arrays for rho mixing           1.69 Mb     (   13824,    8)

     Check: negative/imaginary core charge=   -0.000421    0.000000

     Initial potential from superposition of free atoms

     starting charge   15.99956, renormalised to   16.00000
     Starting wfc are   13 randomized atomic wfcs

     total cpu time spent up to now is        2.6 secs

     Self-consistent Calculation

     iteration #  1     ecut=    50.00 Ry     beta=0.70
     Davidson diagonalization with overlap
     ethr =  1.00E-02,  avg # of iterations =  3.2

     negative rho (up, down):  0.000E+00 3.409E-04

     Magnetic moment per site:
     atom:    1    charge:   14.2845    magn:    5.7000    constr:    0.0000

     total cpu time spent up to now is        6.6 secs

     total energy              =    -328.98306970 Ry
     Harris-Foulkes estimate   =    -328.05899551 Ry
     estimated scf accuracy    <       1.50925677 Ry

     total magnetization       =     3.86 Bohr mag/cell
     absolute magnetization    =     3.89 Bohr mag/cell

     iteration #  2     ecut=    50.00 Ry     beta=0.70
     Davidson diagonalization with overlap
     ethr =  9.43E-03,  avg # of iterations =  1.2

     negative rho (up, down):  0.000E+00 3.641E-04

     Magnetic moment per site:
     atom:    1    charge:   14.5118    magn:    3.5003    constr:    0.0000

     total cpu time spent up to now is        9.5 secs

     total energy              =    -329.16020355 Ry
     Harris-Foulkes estimate   =    -329.09992257 Ry
     estimated scf accuracy    <       0.34467622 Ry

     total magnetization       =     3.08 Bohr mag/cell
     absolute magnetization    =     3.19 Bohr mag/cell

     iteration #  3     ecut=    50.00 Ry     beta=0.70
     Davidson diagonalization with overlap
     ethr =  2.15E-03,  avg # of iterations =  2.0

     negative rho (up, down):  0.000E+00 3.677E-04

     Magnetic moment per site:
     atom:    1    charge:   14.3962    magn:    2.4913    constr:    0.0000

     total cpu time spent up to now is       12.9 secs

     total energy              =    -329.18233858 Ry
     Harris-Foulkes estimate   =    -329.34215600 Ry
     estimated scf accuracy    <       0.46626601 Ry

     total magnetization       =     2.51 Bohr mag/cell
     absolute magnetization    =     2.65 Bohr mag/cell

     iteration #  4     ecut=    50.00 Ry     beta=0.70
     Davidson diagonalization with overlap
     ethr =  2.15E-03,  avg # of iterations =  2.0

     negative rho (up, down):  0.000E+00 2.098E-04

     Magnetic moment per site:
     atom:    1    charge:   14.4296    magn:    2.2735    constr:    0.0000

     total cpu time spent up to now is       16.1 secs

     total energy              =    -329.25883037 Ry
     Harris-Foulkes estimate   =    -329.25795671 Ry
     estimated scf accuracy    <       0.00205766 Ry

     total magnetization       =     2.32 Bohr mag/cell
     absolute magnetization    =     2.48 Bohr mag/cell

     iteration #  5     ecut=    50.00 Ry     beta=0.70
     Davidson diagonalization with overlap
     ethr =  1.29E-05,  avg # of iterations =  3.4

     negative rho (up, down):  0.000E+00 2.037E-04

     Magnetic moment per site:
     atom:    1    charge:   14.4171    magn:    2.2609    constr:    0.0000

     total cpu time spent up to now is       20.3 secs

     total energy              =    -329.26219086 Ry
     Harris-Foulkes estimate   =    -329.26194744 Ry
     estimated scf accuracy    <       0.00042186 Ry

     total magnetization       =     2.20 Bohr mag/cell
     absolute magnetization    =     2.33 Bohr mag/cell

     iteration #  6     ecut=    50.00 Ry     beta=0.70
     Davidson diagonalization with overlap
     ethr =  2.64E-06,  avg # of iterations =  1.8

     negative rho (up, down):  0.000E+00 1.435E-04

     Magnetic moment per site:
     atom:    1    charge:   14.4129    magn:    2.1672    constr:    0.0000

     total cpu time spent up to now is       23.4 secs

     total energy              =    -329.26215789 Ry
     Harris-Foulkes estimate   =    -329.26231297 Ry
     estimated scf accuracy    <       0.00023877 Ry

     total magnetization       =     2.18 Bohr mag/cell
     absolute magnetization    =     2.31 Bohr mag/cell

     iteration #  7     ecut=    50.00 Ry     beta=0.70
     Davidson diagonalization with overlap
     ethr =  1.49E-06,  avg # of iterations =  1.8

     negative rho (up, down):  0.000E+00 1.706E-04

     Magnetic moment per site:
     atom:    1    charge:   14.4173    magn:    2.2070    constr:    0.0000

     total cpu time spent up to now is       26.6 secs

     total energy              =    -329.26256038 Ry
     Harris-Foulkes estimate   =    -329.26245586 Ry
     estimated scf accuracy    <       0.00005235 Ry

     total magnetization       =     2.13 Bohr mag/cell
     absolute magnetization    =     2.25 Bohr mag/cell

     iteration #  8     ecut=    50.00 Ry     beta=0.70
     Davidson diagonalization with overlap
     ethr =  3.27E-07,  avg # of iterations =  2.0

     negative rho (up, down):  0.000E+00 1.678E-04

     Magnetic moment per site:
     atom:    1    charge:   14.4183    magn:    2.1945    constr:    0.0000

     total cpu time spent up to now is       30.1 secs

     total energy              =    -329.26259209 Ry
     Harris-Foulkes estimate   =    -329.26258309 Ry
     estimated scf accuracy    <       0.00001350 Ry

     total magnetization       =     2.15 Bohr mag/cell
     absolute magnetization    =     2.27 Bohr mag/cell

     iteration #  9     ecut=    50.00 Ry     beta=0.70
     Davidson diagonalization with overlap
     ethr =  8.44E-08,  avg # of iterations =  1.9

     negative rho (up, down):  0.000E+00 1.636E-04

     Magnetic moment per site:
     atom:    1    charge:   14.4173    magn:    2.1847    constr:    0.0000

     total cpu time spent up to now is       34.0 secs

     total energy              =    -329.26260009 Ry
     Harris-Foulkes estimate   =    -329.26259856 Ry
     estimated scf accuracy    <       0.00000477 Ry

     total magnetization       =     2.14 Bohr mag/cell
     absolute magnetization    =     2.26 Bohr mag/cell

     iteration # 10     ecut=    50.00 Ry     beta=0.70
     Davidson diagonalization with overlap
     ethr =  2.98E-08,  avg # of iterations =  1.6

     negative rho (up, down):  0.000E+00 1.621E-04

     Magnetic moment per site:
     atom:    1    charge:   14.4172    magn:    2.1805    constr:    0.0000

     total cpu time spent up to now is       37.6 secs

     total energy              =    -329.26260285 Ry
     Harris-Foulkes estimate   =    -329.26260232 Ry
     estimated scf accuracy    <       0.00000031 Ry

     total magnetization       =     2.14 Bohr mag/cell
     absolute magnetization    =     2.25 Bohr mag/cell

     iteration # 11     ecut=    50.00 Ry     beta=0.70
     Davidson diagonalization with overlap
     ethr =  1.92E-09,  avg # of iterations =  2.6

     negative rho (up, down):  0.000E+00 1.618E-04

     Magnetic moment per site:
     atom:    1    charge:   14.4172    magn:    2.1795    constr:    0.0000

     total cpu time spent up to now is       41.5 secs

     total energy              =    -329.26260386 Ry
     Harris-Foulkes estimate   =    -329.26260346 Ry
     estimated scf accuracy    <       0.00000001 Ry

     total magnetization       =     2.13 Bohr mag/cell
     absolute magnetization    =     2.25 Bohr mag/cell

     iteration # 12     ecut=    50.00 Ry     beta=0.70
     Davidson diagonalization with overlap
     ethr =  6.57E-11,  avg # of iterations =  2.6

     negative rho (up, down):  0.000E+00 1.620E-04

     Magnetic moment per site:
     atom:    1    charge:   14.4171    magn:    2.1795    constr:    0.0000

     total cpu time spent up to now is       45.3 secs

     End of self-consistent calculation

     Number of k-points >= 100: set verbosity='high' to print the bands.

     the Fermi energy is    17.7016 ev

!    total energy              =    -329.26260406 Ry
     Harris-Foulkes estimate   =    -329.26260392 Ry
     estimated scf accuracy    <          7.0E-10 Ry

     total all-electron energy =     -2545.559140 Ry

     The total energy is the sum of the following terms:

     one-electron contribution =    -112.02647238 Ry
     hartree contribution      =      66.24945937 Ry
     xc contribution           =     -34.80973621 Ry
     ewald contribution        =    -172.52662280 Ry
     one-center paw contrib.   =     -76.15032987 Ry
     smearing contrib. (-TS)   =       0.00109784 Ry

     total magnetization       =     2.13 Bohr mag/cell
     absolute magnetization    =     2.25 Bohr mag/cell

     convergence has been achieved in  12 iterations

     Forces acting on atoms (Ry/au):


     negative rho (up, down):  0.000E+00 1.620E-04
     atom    1 type  1   force =     0.00000000    0.00000000    0.00000000

     Total force =     0.000000     Total SCF correction =     0.000000


     entering subroutine stress ...


     negative rho (up, down):  0.000E+00 1.620E-04
          total   stress  (Ry/bohr**3)                   (kbar)     P= -137.14
  -0.00093225   0.00000000  -0.00000000       -137.14      0.00     -0.00
   0.00000000  -0.00093225  -0.00000000          0.00   -137.14     -0.00
  -0.00000000  -0.00000000  -0.00093225         -0.00     -0.00   -137.14


     Writing output data file Fe_bcc.save

     init_run     :      2.14s CPU      2.19s WALL (       1 calls)
     electrons    :     41.83s CPU     42.70s WALL (       1 calls)
     forces       :      0.18s CPU      0.18s WALL (       1 calls)
     stress       :      0.68s CPU      0.69s WALL (       1 calls)

     Called by init_run:
     wfcinit      :      1.10s CPU      1.09s WALL (       1 calls)
     potinit      :      0.53s CPU      0.55s WALL (       1 calls)

     Called by electrons:
     c_bands      :     30.12s CPU     30.47s WALL (      12 calls)
     sum_band     :      5.42s CPU      5.74s WALL (      12 calls)
     v_of_rho     :      0.28s CPU      0.30s WALL (      13 calls)
     newd         :      0.21s CPU      0.23s WALL (      13 calls)
     mix_rho      :      0.04s CPU      0.04s WALL (      12 calls)

     Called by c_bands:
     init_us_2    :      0.67s CPU      0.70s WALL (    3888 calls)
     cegterg      :     28.86s CPU     29.16s WALL (    1728 calls)

     Called by *egterg:
     h_psi        :     24.74s CPU     25.15s WALL (    5619 calls)
     s_psi        :      0.67s CPU      0.55s WALL (    5619 calls)
     g_psi        :      0.14s CPU      0.14s WALL (    3747 calls)
     cdiaghg      :      1.61s CPU      1.64s WALL (    5475 calls)

     Called by h_psi:
     add_vuspsi   :      0.69s CPU      0.60s WALL (    5619 calls)

     General routines
     calbec       :      0.74s CPU      0.77s WALL (    7635 calls)
     fft          :      0.15s CPU      0.16s WALL (     437 calls)
     ffts         :      0.02s CPU      0.02s WALL (      50 calls)
     fftw         :     25.31s CPU     25.92s WALL (  123710 calls)
     interpolate  :      0.04s CPU      0.04s WALL (      50 calls)
     davcio       :      0.00s CPU      0.01s WALL (     144 calls)


     PAW routines
     PAW_pot      :      6.26s CPU      6.45s WALL (      13 calls)
     PAW_symme    :      0.02s CPU      0.02s WALL (      25 calls)

     PWSCF        :    45.44s CPU        46.58s WALL


   This run was terminated on:  10:41:36  11May2015            

=------------------------------------------------------------------------------=
   JOB DONE.
=------------------------------------------------------------------------------=
