
     Program PWSCF v.5.1.2 starts on 11May2015 at 10:32:41 

     This program is part of the open-source Quantum ESPRESSO suite
     for quantum simulation of materials; please cite
         "P. Giannozzi et al., J. Phys.:Condens. Matter 21 395502 (2009);
          URL http://www.quantum-espresso.org", 
     in publications or presentations arising from this work. More details at
     http://www.quantum-espresso.org/quote

     Serial version
     Reading input from Fe_bcc_5.39_11.pw.in

     Current dimensions of program PWSCF are:
     Max number of different atomic species (ntypx) = 10
     Max number of k-points (npk) =  40000
     Max angular momentum in pseudopotentials (lmaxx) =  3
               file Fe.pbe-spn-kjpaw_psl.0.2.1.UPF: wavefunction(s)  3D renormalized

     G-vector sticks info
     --------------------
     sticks:   dense  smooth     PW     G-vecs:    dense   smooth      PW
     Sum         411     333    103                 5233     3781     683

     Generating pointlists ...
     new r_m :   0.3572 (alat units)  1.9255 (a.u.) for type    1


     bravais-lattice index     =            3
     lattice parameter (alat)  =       5.3900  a.u.
     unit-cell volume          =      78.2954 (a.u.)^3
     number of atoms/cell      =            1
     number of atomic types    =            1
     number of electrons       =        16.00
     number of Kohn-Sham states=           12
     kinetic-energy cutoff     =      50.0000  Ry
     charge density cutoff     =     250.0000  Ry
     convergence threshold     =      1.0E-08
     mixing beta               =       0.7000
     number of iterations used =            8  plain     mixing
     Exchange-correlation      =  SLA  PW   PBX  PBC ( 1  4  3  4 0 0)

     celldm(1)=   5.390000  celldm(2)=   0.000000  celldm(3)=   0.000000
     celldm(4)=   0.000000  celldm(5)=   0.000000  celldm(6)=   0.000000

     crystal axes: (cart. coord. in units of alat)
               a(1) = (   0.500000   0.500000   0.500000 )  
               a(2) = (  -0.500000   0.500000   0.500000 )  
               a(3) = (  -0.500000  -0.500000   0.500000 )  

     reciprocal axes: (cart. coord. in units 2 pi/alat)
               b(1) = (  1.000000  0.000000  1.000000 )  
               b(2) = ( -1.000000  1.000000  0.000000 )  
               b(3) = (  0.000000 -1.000000  1.000000 )  


     PseudoPot. # 1 for Fe read from file:
     ./Fe.pbe-spn-kjpaw_psl.0.2.1.UPF
     MD5 check sum: a0a08122d52b112de96d1da1d7dd020f
     Pseudo is Projector augmented-wave + core cor, Zval = 16.0
     Generated using "atomic" code by A. Dal Corso  v.5.0.2 svn rev. 9415
     Shape of augmentation charge: PSQ
     Using radial grid of 1191 points,  6 beta functions with: 
                l(1) =   0
                l(2) =   0
                l(3) =   1
                l(4) =   1
                l(5) =   2
                l(6) =   2
     Q(r) pseudized with 0 coefficients 


     atomic species   valence    mass     pseudopotential
        Fe            16.00    55.85000     Fe( 1.00)

     Starting magnetic structure 
     atomic species   magnetization
        Fe           0.700

     48 Sym. Ops., with inversion, found



   Cartesian axes

     site n.     atom                  positions (alat units)
         1           Fe  tau(   1) = (   0.0000000   0.0000000   0.0000000  )

     number of k points=   112  Marzari-Vanderbilt smearing, width (Ry)=  0.0250

     Number of k-points >= 100: set verbosity='high' to print them.

     Dense  grid:     5233 G-vectors     FFT dimensions: (  24,  24,  24)

     Smooth grid:     3781 G-vectors     FFT dimensions: (  24,  24,  24)

     Largest allocated arrays     est. size (Mb)     dimensions
        Kohn-Sham Wavefunctions         0.09 Mb     (     478,   12)
        NL pseudopotentials             0.13 Mb     (     478,   18)
        Each V/rho on FFT grid          0.42 Mb     (   13824,   2)
        Each G-vector array             0.04 Mb     (    5233)
        G-vector shells                 0.00 Mb     (      86)
     Largest temporary arrays     est. size (Mb)     dimensions
        Auxiliary wavefunctions         0.35 Mb     (     478,   48)
        Each subspace H/S matrix        0.04 Mb     (      48,   48)
        Each <psi_i|beta_j> matrix      0.00 Mb     (      18,   12)
        Arrays for rho mixing           1.69 Mb     (   13824,    8)

     Check: negative/imaginary core charge=   -0.000419    0.000000

     Initial potential from superposition of free atoms

     starting charge   15.99956, renormalised to   16.00000
     Starting wfc are   13 randomized atomic wfcs

     total cpu time spent up to now is        2.3 secs

     Self-consistent Calculation

     iteration #  1     ecut=    50.00 Ry     beta=0.70
     Davidson diagonalization with overlap
     ethr =  1.00E-02,  avg # of iterations =  3.3

     negative rho (up, down):  0.000E+00 3.400E-04

     Magnetic moment per site:
     atom:    1    charge:   14.2799    magn:    5.7061    constr:    0.0000

     total cpu time spent up to now is        5.3 secs

     total energy              =    -328.97835869 Ry
     Harris-Foulkes estimate   =    -328.05733020 Ry
     estimated scf accuracy    <       1.50629478 Ry

     total magnetization       =     3.88 Bohr mag/cell
     absolute magnetization    =     3.90 Bohr mag/cell

     iteration #  2     ecut=    50.00 Ry     beta=0.70
     Davidson diagonalization with overlap
     ethr =  9.41E-03,  avg # of iterations =  1.2

     negative rho (up, down):  0.000E+00 3.559E-04

     Magnetic moment per site:
     atom:    1    charge:   14.5102    magn:    3.4849    constr:    0.0000

     total cpu time spent up to now is        7.8 secs

     total energy              =    -329.16151988 Ry
     Harris-Foulkes estimate   =    -329.09900384 Ry
     estimated scf accuracy    <       0.35011108 Ry

     total magnetization       =     3.05 Bohr mag/cell
     absolute magnetization    =     3.18 Bohr mag/cell

     iteration #  3     ecut=    50.00 Ry     beta=0.70
     Davidson diagonalization with overlap
     ethr =  2.19E-03,  avg # of iterations =  2.1

     negative rho (up, down):  0.000E+00 3.591E-04

     Magnetic moment per site:
     atom:    1    charge:   14.3940    magn:    2.4688    constr:    0.0000

     total cpu time spent up to now is       10.4 secs

     total energy              =    -329.18186106 Ry
     Harris-Foulkes estimate   =    -329.34424077 Ry
     estimated scf accuracy    <       0.46953504 Ry

     total magnetization       =     2.51 Bohr mag/cell
     absolute magnetization    =     2.65 Bohr mag/cell

     iteration #  4     ecut=    50.00 Ry     beta=0.70
     Davidson diagonalization with overlap
     ethr =  2.19E-03,  avg # of iterations =  2.0

     negative rho (up, down):  0.000E+00 2.019E-04

     Magnetic moment per site:
     atom:    1    charge:   14.4224    magn:    2.2360    constr:    0.0000

     total cpu time spent up to now is       13.0 secs

     total energy              =    -329.25852815 Ry
     Harris-Foulkes estimate   =    -329.25760604 Ry
     estimated scf accuracy    <       0.00224313 Ry

     total magnetization       =     2.28 Bohr mag/cell
     absolute magnetization    =     2.45 Bohr mag/cell

     iteration #  5     ecut=    50.00 Ry     beta=0.70
     Davidson diagonalization with overlap
     ethr =  1.40E-05,  avg # of iterations =  3.5

     negative rho (up, down):  0.000E+00 1.893E-04

     Magnetic moment per site:
     atom:    1    charge:   14.4111    magn:    2.2369    constr:    0.0000

     total cpu time spent up to now is       16.2 secs

     total energy              =    -329.26200258 Ry
     Harris-Foulkes estimate   =    -329.26181685 Ry
     estimated scf accuracy    <       0.00051855 Ry

     total magnetization       =     2.17 Bohr mag/cell
     absolute magnetization    =     2.31 Bohr mag/cell

     iteration #  6     ecut=    50.00 Ry     beta=0.70
     Davidson diagonalization with overlap
     ethr =  3.24E-06,  avg # of iterations =  2.2

     negative rho (up, down):  0.000E+00 1.403E-04

     Magnetic moment per site:
     atom:    1    charge:   14.4086    magn:    2.1690    constr:    0.0000

     total cpu time spent up to now is       19.0 secs

     total energy              =    -329.26213049 Ry
     Harris-Foulkes estimate   =    -329.26223103 Ry
     estimated scf accuracy    <       0.00037299 Ry

     total magnetization       =     2.16 Bohr mag/cell
     absolute magnetization    =     2.29 Bohr mag/cell

     iteration #  7     ecut=    50.00 Ry     beta=0.70
     Davidson diagonalization with overlap
     ethr =  2.33E-06,  avg # of iterations =  1.5

     negative rho (up, down):  0.000E+00 1.656E-04

     Magnetic moment per site:
     atom:    1    charge:   14.4125    magn:    2.2050    constr:    0.0000

     total cpu time spent up to now is       21.4 secs

     total energy              =    -329.26239067 Ry
     Harris-Foulkes estimate   =    -329.26232406 Ry
     estimated scf accuracy    <       0.00004541 Ry

     total magnetization       =     2.13 Bohr mag/cell
     absolute magnetization    =     2.25 Bohr mag/cell

     iteration #  8     ecut=    50.00 Ry     beta=0.70
     Davidson diagonalization with overlap
     ethr =  2.84E-07,  avg # of iterations =  2.0

     negative rho (up, down):  0.000E+00 1.622E-04

     Magnetic moment per site:
     atom:    1    charge:   14.4127    magn:    2.1936    constr:    0.0000

     total cpu time spent up to now is       24.0 secs

     total energy              =    -329.26241462 Ry
     Harris-Foulkes estimate   =    -329.26240706 Ry
     estimated scf accuracy    <       0.00001532 Ry

     total magnetization       =     2.14 Bohr mag/cell
     absolute magnetization    =     2.27 Bohr mag/cell

     iteration #  9     ecut=    50.00 Ry     beta=0.70
     Davidson diagonalization with overlap
     ethr =  9.58E-08,  avg # of iterations =  2.3

     negative rho (up, down):  0.000E+00 1.592E-04

     Magnetic moment per site:
     atom:    1    charge:   14.4119    magn:    2.1861    constr:    0.0000

     total cpu time spent up to now is       26.4 secs

     total energy              =    -329.26242259 Ry
     Harris-Foulkes estimate   =    -329.26242089 Ry
     estimated scf accuracy    <       0.00000292 Ry

     total magnetization       =     2.14 Bohr mag/cell
     absolute magnetization    =     2.26 Bohr mag/cell

     iteration # 10     ecut=    50.00 Ry     beta=0.70
     Davidson diagonalization with overlap
     ethr =  1.83E-08,  avg # of iterations =  1.6

     negative rho (up, down):  0.000E+00 1.580E-04

     Magnetic moment per site:
     atom:    1    charge:   14.4118    magn:    2.1834    constr:    0.0000

     total cpu time spent up to now is       28.8 secs

     total energy              =    -329.26242392 Ry
     Harris-Foulkes estimate   =    -329.26242369 Ry
     estimated scf accuracy    <       0.00000017 Ry

     total magnetization       =     2.14 Bohr mag/cell
     absolute magnetization    =     2.26 Bohr mag/cell

     iteration # 11     ecut=    50.00 Ry     beta=0.70
     Davidson diagonalization with overlap
     ethr =  1.05E-09,  avg # of iterations =  2.9

     negative rho (up, down):  0.000E+00 1.583E-04

     Magnetic moment per site:
     atom:    1    charge:   14.4119    magn:    2.1838    constr:    0.0000

     total cpu time spent up to now is       31.9 secs

     total energy              =    -329.26242458 Ry
     Harris-Foulkes estimate   =    -329.26242427 Ry
     estimated scf accuracy    <       0.00000002 Ry

     total magnetization       =     2.14 Bohr mag/cell
     absolute magnetization    =     2.25 Bohr mag/cell

     iteration # 12     ecut=    50.00 Ry     beta=0.70
     Davidson diagonalization with overlap
     ethr =  1.29E-10,  avg # of iterations =  2.0

     negative rho (up, down):  0.000E+00 1.580E-04

     Magnetic moment per site:
     atom:    1    charge:   14.4119    magn:    2.1829    constr:    0.0000

     total cpu time spent up to now is       34.5 secs

     total energy              =    -329.26242457 Ry
     Harris-Foulkes estimate   =    -329.26242459 Ry
     estimated scf accuracy    <       0.00000001 Ry

     total magnetization       =     2.14 Bohr mag/cell
     absolute magnetization    =     2.25 Bohr mag/cell

     iteration # 13     ecut=    50.00 Ry     beta=0.70
     Davidson diagonalization with overlap
     ethr =  6.48E-11,  avg # of iterations =  2.1

     negative rho (up, down):  0.000E+00 1.581E-04

     Magnetic moment per site:
     atom:    1    charge:   14.4119    magn:    2.1831    constr:    0.0000

     total cpu time spent up to now is       37.3 secs

     End of self-consistent calculation

     Number of k-points >= 100: set verbosity='high' to print the bands.

     the Fermi energy is    17.8410 ev

!    total energy              =    -329.26242463 Ry
     Harris-Foulkes estimate   =    -329.26242459 Ry
     estimated scf accuracy    <          3.2E-09 Ry

     total all-electron energy =     -2545.558960 Ry

     The total energy is the sum of the following terms:

     one-electron contribution =    -111.51119204 Ry
     hartree contribution      =      66.05901096 Ry
     xc contribution           =     -34.81358420 Ry
     ewald contribution        =    -172.84670930 Ry
     one-center paw contrib.   =     -76.15056086 Ry
     smearing contrib. (-TS)   =       0.00061081 Ry

     total magnetization       =     2.14 Bohr mag/cell
     absolute magnetization    =     2.25 Bohr mag/cell

     convergence has been achieved in  13 iterations

     Forces acting on atoms (Ry/au):


     negative rho (up, down):  0.000E+00 1.581E-04
     atom    1 type  1   force =     0.00000000    0.00000000    0.00000000

     Total force =     0.000000     Total SCF correction =     0.000000


     entering subroutine stress ...


     negative rho (up, down):  0.000E+00 1.581E-04
          total   stress  (Ry/bohr**3)                   (kbar)     P= -123.16
  -0.00083722   0.00000000  -0.00000000       -123.16      0.00     -0.00
   0.00000000  -0.00083722   0.00000000          0.00   -123.16      0.00
  -0.00000000   0.00000000  -0.00083722         -0.00      0.00   -123.16


     Writing output data file Fe_bcc.save

     init_run     :      1.85s CPU      1.89s WALL (       1 calls)
     electrons    :     34.88s CPU     35.06s WALL (       1 calls)
     forces       :      0.16s CPU      0.17s WALL (       1 calls)
     stress       :      0.57s CPU      0.58s WALL (       1 calls)

     Called by init_run:
     wfcinit      :      0.85s CPU      0.85s WALL (       1 calls)
     potinit      :      0.51s CPU      0.53s WALL (       1 calls)

     Called by electrons:
     c_bands      :     24.12s CPU     24.11s WALL (      13 calls)
     sum_band     :      4.28s CPU      4.33s WALL (      13 calls)
     v_of_rho     :      0.29s CPU      0.30s WALL (      14 calls)
     newd         :      0.20s CPU      0.21s WALL (      14 calls)
     mix_rho      :      0.03s CPU      0.04s WALL (      13 calls)

     Called by c_bands:
     init_us_2    :      0.53s CPU      0.54s WALL (    3248 calls)
     cegterg      :     23.09s CPU     23.07s WALL (    1456 calls)

     Called by *egterg:
     h_psi        :     19.80s CPU     19.88s WALL (    4769 calls)
     s_psi        :      0.53s CPU      0.44s WALL (    4769 calls)
     g_psi        :      0.12s CPU      0.12s WALL (    3201 calls)
     cdiaghg      :      1.32s CPU      1.32s WALL (    4657 calls)

     Called by h_psi:
     add_vuspsi   :      0.52s CPU      0.46s WALL (    4769 calls)

     General routines
     calbec       :      0.56s CPU      0.57s WALL (    6449 calls)
     fft          :      0.15s CPU      0.15s WALL (     468 calls)
     ffts         :      0.02s CPU      0.02s WALL (      54 calls)
     fftw         :     20.18s CPU     20.29s WALL (  104834 calls)
     interpolate  :      0.04s CPU      0.04s WALL (      54 calls)
     davcio       :      0.00s CPU      0.00s WALL (     112 calls)


     PAW routines
     PAW_pot      :      6.44s CPU      6.57s WALL (      14 calls)
     PAW_symme    :      0.02s CPU      0.02s WALL (      27 calls)

     PWSCF        :    38.03s CPU        38.36s WALL


   This run was terminated on:  10:33:19  11May2015            

=------------------------------------------------------------------------------=
   JOB DONE.
=------------------------------------------------------------------------------=
