
     Program PWSCF v.5.1.2 starts on 11May2015 at 10:49:34 

     This program is part of the open-source Quantum ESPRESSO suite
     for quantum simulation of materials; please cite
         "P. Giannozzi et al., J. Phys.:Condens. Matter 21 395502 (2009);
          URL http://www.quantum-espresso.org", 
     in publications or presentations arising from this work. More details at
     http://www.quantum-espresso.org/quote

     Serial version
     Reading input from Fe_bcc_5.41_13.pw.in

     Current dimensions of program PWSCF are:
     Max number of different atomic species (ntypx) = 10
     Max number of k-points (npk) =  40000
     Max angular momentum in pseudopotentials (lmaxx) =  3
               file Fe.pbe-spn-kjpaw_psl.0.2.1.UPF: wavefunction(s)  3D renormalized

     G-vector sticks info
     --------------------
     sticks:   dense  smooth     PW     G-vecs:    dense   smooth      PW
     Sum         411     333    103                 5281     3805     683

     Generating pointlists ...
     new r_m :   0.3572 (alat units)  1.9326 (a.u.) for type    1


     bravais-lattice index     =            3
     lattice parameter (alat)  =       5.4100  a.u.
     unit-cell volume          =      79.1702 (a.u.)^3
     number of atoms/cell      =            1
     number of atomic types    =            1
     number of electrons       =        16.00
     number of Kohn-Sham states=           12
     kinetic-energy cutoff     =      50.0000  Ry
     charge density cutoff     =     250.0000  Ry
     convergence threshold     =      1.0E-08
     mixing beta               =       0.7000
     number of iterations used =            8  plain     mixing
     Exchange-correlation      =  SLA  PW   PBX  PBC ( 1  4  3  4 0 0)

     celldm(1)=   5.410000  celldm(2)=   0.000000  celldm(3)=   0.000000
     celldm(4)=   0.000000  celldm(5)=   0.000000  celldm(6)=   0.000000

     crystal axes: (cart. coord. in units of alat)
               a(1) = (   0.500000   0.500000   0.500000 )  
               a(2) = (  -0.500000   0.500000   0.500000 )  
               a(3) = (  -0.500000  -0.500000   0.500000 )  

     reciprocal axes: (cart. coord. in units 2 pi/alat)
               b(1) = (  1.000000  0.000000  1.000000 )  
               b(2) = ( -1.000000  1.000000  0.000000 )  
               b(3) = (  0.000000 -1.000000  1.000000 )  


     PseudoPot. # 1 for Fe read from file:
     ./Fe.pbe-spn-kjpaw_psl.0.2.1.UPF
     MD5 check sum: a0a08122d52b112de96d1da1d7dd020f
     Pseudo is Projector augmented-wave + core cor, Zval = 16.0
     Generated using "atomic" code by A. Dal Corso  v.5.0.2 svn rev. 9415
     Shape of augmentation charge: PSQ
     Using radial grid of 1191 points,  6 beta functions with: 
                l(1) =   0
                l(2) =   0
                l(3) =   1
                l(4) =   1
                l(5) =   2
                l(6) =   2
     Q(r) pseudized with 0 coefficients 


     atomic species   valence    mass     pseudopotential
        Fe            16.00    55.85000     Fe( 1.00)

     Starting magnetic structure 
     atomic species   magnetization
        Fe           0.700

     48 Sym. Ops., with inversion, found



   Cartesian axes

     site n.     atom                  positions (alat units)
         1           Fe  tau(   1) = (   0.0000000   0.0000000   0.0000000  )

     number of k points=   168  Marzari-Vanderbilt smearing, width (Ry)=  0.0250

     Number of k-points >= 100: set verbosity='high' to print them.

     Dense  grid:     5281 G-vectors     FFT dimensions: (  24,  24,  24)

     Smooth grid:     3805 G-vectors     FFT dimensions: (  24,  24,  24)

     Largest allocated arrays     est. size (Mb)     dimensions
        Kohn-Sham Wavefunctions         0.09 Mb     (     482,   12)
        NL pseudopotentials             0.13 Mb     (     482,   18)
        Each V/rho on FFT grid          0.42 Mb     (   13824,   2)
        Each G-vector array             0.04 Mb     (    5281)
        G-vector shells                 0.00 Mb     (      87)
     Largest temporary arrays     est. size (Mb)     dimensions
        Auxiliary wavefunctions         0.35 Mb     (     482,   48)
        Each subspace H/S matrix        0.04 Mb     (      48,   48)
        Each <psi_i|beta_j> matrix      0.00 Mb     (      18,   12)
        Arrays for rho mixing           1.69 Mb     (   13824,    8)

     Check: negative/imaginary core charge=   -0.000416    0.000000

     Initial potential from superposition of free atoms

     starting charge   15.99956, renormalised to   16.00000
     Starting wfc are   13 randomized atomic wfcs

     total cpu time spent up to now is        2.6 secs

     Self-consistent Calculation

     iteration #  1     ecut=    50.00 Ry     beta=0.70
     Davidson diagonalization with overlap
     ethr =  1.00E-02,  avg # of iterations =  3.2

     negative rho (up, down):  0.000E+00 3.433E-04

     Magnetic moment per site:
     atom:    1    charge:   14.2890    magn:    5.6985    constr:    0.0000

     total cpu time spent up to now is        6.9 secs

     total energy              =    -328.98645385 Ry
     Harris-Foulkes estimate   =    -328.06125190 Ry
     estimated scf accuracy    <       1.50972404 Ry

     total magnetization       =     3.85 Bohr mag/cell
     absolute magnetization    =     3.88 Bohr mag/cell

     iteration #  2     ecut=    50.00 Ry     beta=0.70
     Davidson diagonalization with overlap
     ethr =  9.44E-03,  avg # of iterations =  1.2

     negative rho (up, down):  0.000E+00 3.620E-04

     Magnetic moment per site:
     atom:    1    charge:   14.5187    magn:    3.4853    constr:    0.0000

     total cpu time spent up to now is       10.3 secs

     total energy              =    -329.16229089 Ry
     Harris-Foulkes estimate   =    -329.10173321 Ry
     estimated scf accuracy    <       0.35027625 Ry

     total magnetization       =     3.04 Bohr mag/cell
     absolute magnetization    =     3.18 Bohr mag/cell

     iteration #  3     ecut=    50.00 Ry     beta=0.70
     Davidson diagonalization with overlap
     ethr =  2.19E-03,  avg # of iterations =  2.1

     negative rho (up, down):  0.000E+00 3.693E-04

     Magnetic moment per site:
     atom:    1    charge:   14.4018    magn:    2.4873    constr:    0.0000

     total cpu time spent up to now is       13.9 secs

     total energy              =    -329.18061506 Ry
     Harris-Foulkes estimate   =    -329.34581376 Ry
     estimated scf accuracy    <       0.47370367 Ry

     total magnetization       =     2.53 Bohr mag/cell
     absolute magnetization    =     2.67 Bohr mag/cell

     iteration #  4     ecut=    50.00 Ry     beta=0.70
     Davidson diagonalization with overlap
     ethr =  2.19E-03,  avg # of iterations =  2.0

     negative rho (up, down):  0.000E+00 2.171E-04

     Magnetic moment per site:
     atom:    1    charge:   14.4320    magn:    2.2768    constr:    0.0000

     total cpu time spent up to now is       17.5 secs

     total energy              =    -329.25836474 Ry
     Harris-Foulkes estimate   =    -329.25750009 Ry
     estimated scf accuracy    <       0.00203315 Ry

     total magnetization       =     2.31 Bohr mag/cell
     absolute magnetization    =     2.48 Bohr mag/cell

     iteration #  5     ecut=    50.00 Ry     beta=0.70
     Davidson diagonalization with overlap
     ethr =  1.27E-05,  avg # of iterations =  3.4

     negative rho (up, down):  0.000E+00 2.023E-04

     Magnetic moment per site:
     atom:    1    charge:   14.4227    magn:    2.2407    constr:    0.0000

     total cpu time spent up to now is       22.2 secs

     total energy              =    -329.26184007 Ry
     Harris-Foulkes estimate   =    -329.26154142 Ry
     estimated scf accuracy    <       0.00053187 Ry

     total magnetization       =     2.18 Bohr mag/cell
     absolute magnetization    =     2.33 Bohr mag/cell

     iteration #  6     ecut=    50.00 Ry     beta=0.70
     Davidson diagonalization with overlap
     ethr =  3.32E-06,  avg # of iterations =  1.8

     negative rho (up, down):  0.000E+00 1.235E-04

     Magnetic moment per site:
     atom:    1    charge:   14.4156    magn:    2.0955    constr:    0.0000

     total cpu time spent up to now is       25.7 secs

     total energy              =    -329.26154294 Ry
     Harris-Foulkes estimate   =    -329.26203052 Ry
     estimated scf accuracy    <       0.00030730 Ry

     total magnetization       =     2.14 Bohr mag/cell
     absolute magnetization    =     2.29 Bohr mag/cell

     iteration #  7     ecut=    50.00 Ry     beta=0.70
     Davidson diagonalization with overlap
     ethr =  1.92E-06,  avg # of iterations =  2.3

     negative rho (up, down):  0.000E+00 1.650E-04

     Magnetic moment per site:
     atom:    1    charge:   14.4210    magn:    2.1791    constr:    0.0000

     total cpu time spent up to now is       29.4 secs

     total energy              =    -329.26233050 Ry
     Harris-Foulkes estimate   =    -329.26211495 Ry
     estimated scf accuracy    <       0.00015553 Ry

     total magnetization       =     2.08 Bohr mag/cell
     absolute magnetization    =     2.20 Bohr mag/cell

     iteration #  8     ecut=    50.00 Ry     beta=0.70
     Davidson diagonalization with overlap
     ethr =  9.72E-07,  avg # of iterations =  2.0

     negative rho (up, down):  0.000E+00 1.624E-04

     Magnetic moment per site:
     atom:    1    charge:   14.4218    magn:    2.1683    constr:    0.0000

     total cpu time spent up to now is       32.9 secs

     total energy              =    -329.26243308 Ry
     Harris-Foulkes estimate   =    -329.26241347 Ry
     estimated scf accuracy    <       0.00002963 Ry

     total magnetization       =     2.11 Bohr mag/cell
     absolute magnetization    =     2.24 Bohr mag/cell

     iteration #  9     ecut=    50.00 Ry     beta=0.70
     Davidson diagonalization with overlap
     ethr =  1.85E-07,  avg # of iterations =  2.0

     negative rho (up, down):  0.000E+00 1.584E-04

     Magnetic moment per site:
     atom:    1    charge:   14.4213    magn:    2.1529    constr:    0.0000

     total cpu time spent up to now is       36.3 secs

     total energy              =    -329.26244518 Ry
     Harris-Foulkes estimate   =    -329.26243899 Ry
     estimated scf accuracy    <       0.00001298 Ry

     total magnetization       =     2.10 Bohr mag/cell
     absolute magnetization    =     2.23 Bohr mag/cell

     iteration # 10     ecut=    50.00 Ry     beta=0.70
     Davidson diagonalization with overlap
     ethr =  8.11E-08,  avg # of iterations =  1.5

     negative rho (up, down):  0.000E+00 1.553E-04

     Magnetic moment per site:
     atom:    1    charge:   14.4209    magn:    2.1458    constr:    0.0000

     total cpu time spent up to now is       39.7 secs

     total energy              =    -329.26245223 Ry
     Harris-Foulkes estimate   =    -329.26245085 Ry
     estimated scf accuracy    <       0.00000156 Ry

     total magnetization       =     2.10 Bohr mag/cell
     absolute magnetization    =     2.22 Bohr mag/cell

     iteration # 11     ecut=    50.00 Ry     beta=0.70
     Davidson diagonalization with overlap
     ethr =  9.76E-09,  avg # of iterations =  2.1

     negative rho (up, down):  0.000E+00 1.552E-04

     Magnetic moment per site:
     atom:    1    charge:   14.4209    magn:    2.1448    constr:    0.0000

     total cpu time spent up to now is       43.2 secs

     total energy              =    -329.26245387 Ry
     Harris-Foulkes estimate   =    -329.26245335 Ry
     estimated scf accuracy    <       0.00000010 Ry

     total magnetization       =     2.09 Bohr mag/cell
     absolute magnetization    =     2.22 Bohr mag/cell

     iteration # 12     ecut=    50.00 Ry     beta=0.70
     Davidson diagonalization with overlap
     ethr =  6.46E-10,  avg # of iterations =  2.6

     negative rho (up, down):  0.000E+00 1.552E-04

     Magnetic moment per site:
     atom:    1    charge:   14.4209    magn:    2.1449    constr:    0.0000

     total cpu time spent up to now is       47.1 secs

     total energy              =    -329.26245419 Ry
     Harris-Foulkes estimate   =    -329.26245402 Ry
     estimated scf accuracy    <       0.00000003 Ry

     total magnetization       =     2.09 Bohr mag/cell
     absolute magnetization    =     2.22 Bohr mag/cell

     iteration # 13     ecut=    50.00 Ry     beta=0.70
     Davidson diagonalization with overlap
     ethr =  2.11E-10,  avg # of iterations =  1.7

     negative rho (up, down):  0.000E+00 1.543E-04

     Magnetic moment per site:
     atom:    1    charge:   14.4209    magn:    2.1422    constr:    0.0000

     total cpu time spent up to now is       50.5 secs

     total energy              =    -329.26245391 Ry
     Harris-Foulkes estimate   =    -329.26245419 Ry
     estimated scf accuracy    <       0.00000006 Ry

     total magnetization       =     2.09 Bohr mag/cell
     absolute magnetization    =     2.22 Bohr mag/cell

     iteration # 14     ecut=    50.00 Ry     beta=0.70
     Davidson diagonalization with overlap
     ethr =  2.11E-10,  avg # of iterations =  2.1

     negative rho (up, down):  0.000E+00 1.547E-04

     Magnetic moment per site:
     atom:    1    charge:   14.4209    magn:    2.1433    constr:    0.0000

     total cpu time spent up to now is       54.4 secs

     total energy              =    -329.26245428 Ry
     Harris-Foulkes estimate   =    -329.26245409 Ry
     estimated scf accuracy    <       0.00000005 Ry

     total magnetization       =     2.09 Bohr mag/cell
     absolute magnetization    =     2.21 Bohr mag/cell

     iteration # 15     ecut=    50.00 Ry     beta=0.70
     Davidson diagonalization with overlap
     ethr =  2.11E-10,  avg # of iterations =  1.8

     negative rho (up, down):  0.000E+00 1.547E-04

     Magnetic moment per site:
     atom:    1    charge:   14.4209    magn:    2.1433    constr:    0.0000

     total cpu time spent up to now is       57.8 secs

     End of self-consistent calculation

     Number of k-points >= 100: set verbosity='high' to print the bands.

     the Fermi energy is    17.5860 ev

!    total energy              =    -329.26245430 Ry
     Harris-Foulkes estimate   =    -329.26245429 Ry
     estimated scf accuracy    <          1.2E-10 Ry

     total all-electron energy =     -2545.558990 Ry

     The total energy is the sum of the following terms:

     one-electron contribution =    -112.52591939 Ry
     hartree contribution      =      66.42214186 Ry
     xc contribution           =     -34.80177732 Ry
     ewald contribution        =    -172.20771962 Ry
     one-center paw contrib.   =     -76.15030456 Ry
     smearing contrib. (-TS)   =       0.00112473 Ry

     total magnetization       =     2.09 Bohr mag/cell
     absolute magnetization    =     2.22 Bohr mag/cell

     convergence has been achieved in  15 iterations

     Forces acting on atoms (Ry/au):


     negative rho (up, down):  0.000E+00 1.547E-04
     atom    1 type  1   force =     0.00000000    0.00000000    0.00000000

     Total force =     0.000000     Total SCF correction =     0.000000


     entering subroutine stress ...


     negative rho (up, down):  0.000E+00 1.547E-04
          total   stress  (Ry/bohr**3)                   (kbar)     P= -150.84
  -0.00102539  -0.00000000   0.00000000       -150.84     -0.00      0.00
  -0.00000000  -0.00102539  -0.00000000         -0.00   -150.84     -0.00
   0.00000000  -0.00000000  -0.00102539          0.00     -0.00   -150.84


     Writing output data file Fe_bcc.save

     init_run     :      2.25s CPU      2.28s WALL (       1 calls)
     electrons    :     54.87s CPU     55.23s WALL (       1 calls)
     forces       :      0.19s CPU      0.20s WALL (       1 calls)
     stress       :      0.77s CPU      0.80s WALL (       1 calls)

     Called by init_run:
     wfcinit      :      1.24s CPU      1.24s WALL (       1 calls)
     potinit      :      0.50s CPU      0.52s WALL (       1 calls)

     Called by electrons:
     c_bands      :     40.24s CPU     40.37s WALL (      15 calls)
     sum_band     :      7.29s CPU      7.38s WALL (      15 calls)
     v_of_rho     :      0.33s CPU      0.34s WALL (      16 calls)
     newd         :      0.23s CPU      0.24s WALL (      16 calls)
     mix_rho      :      0.04s CPU      0.05s WALL (      15 calls)

     Called by c_bands:
     init_us_2    :      0.91s CPU      0.92s WALL (    5544 calls)
     cegterg      :     38.41s CPU     38.51s WALL (    2520 calls)

     Called by *egterg:
     h_psi        :     33.02s CPU     33.20s WALL (    8008 calls)
     s_psi        :      0.82s CPU      0.71s WALL (    8008 calls)
     g_psi        :      0.19s CPU      0.20s WALL (    5320 calls)
     cdiaghg      :      2.12s CPU      2.13s WALL (    7840 calls)

     Called by h_psi:
     add_vuspsi   :      0.83s CPU      0.75s WALL (    8008 calls)

     General routines
     calbec       :      0.95s CPU      0.96s WALL (   10864 calls)
     fft          :      0.17s CPU      0.18s WALL (     530 calls)
     ffts         :      0.02s CPU      0.02s WALL (      62 calls)
     fftw         :     33.87s CPU     34.07s WALL (  177198 calls)
     interpolate  :      0.05s CPU      0.05s WALL (      62 calls)
     davcio       :      0.00s CPU      0.01s WALL (     168 calls)


     PAW routines
     PAW_pot      :      7.22s CPU      7.34s WALL (      16 calls)
     PAW_symme    :      0.02s CPU      0.02s WALL (      31 calls)

     PWSCF        :    58.65s CPU        59.19s WALL


   This run was terminated on:  10:50:33  11May2015            

=------------------------------------------------------------------------------=
   JOB DONE.
=------------------------------------------------------------------------------=
