
     Program PWSCF v.5.1.2 starts on 11May2015 at 10:46:51 

     This program is part of the open-source Quantum ESPRESSO suite
     for quantum simulation of materials; please cite
         "P. Giannozzi et al., J. Phys.:Condens. Matter 21 395502 (2009);
          URL http://www.quantum-espresso.org", 
     in publications or presentations arising from this work. More details at
     http://www.quantum-espresso.org/quote

     Serial version
     Reading input from Fe_bcc_5.38_13.pw.in

     Current dimensions of program PWSCF are:
     Max number of different atomic species (ntypx) = 10
     Max number of k-points (npk) =  40000
     Max angular momentum in pseudopotentials (lmaxx) =  3
               file Fe.pbe-spn-kjpaw_psl.0.2.1.UPF: wavefunction(s)  3D renormalized

     G-vector sticks info
     --------------------
     sticks:   dense  smooth     PW     G-vecs:    dense   smooth      PW
     Sum         411     333    103                 5233     3781     683

     Generating pointlists ...
     new r_m :   0.3572 (alat units)  1.9219 (a.u.) for type    1


     bravais-lattice index     =            3
     lattice parameter (alat)  =       5.3800  a.u.
     unit-cell volume          =      77.8604 (a.u.)^3
     number of atoms/cell      =            1
     number of atomic types    =            1
     number of electrons       =        16.00
     number of Kohn-Sham states=           12
     kinetic-energy cutoff     =      50.0000  Ry
     charge density cutoff     =     250.0000  Ry
     convergence threshold     =      1.0E-08
     mixing beta               =       0.7000
     number of iterations used =            8  plain     mixing
     Exchange-correlation      =  SLA  PW   PBX  PBC ( 1  4  3  4 0 0)

     celldm(1)=   5.380000  celldm(2)=   0.000000  celldm(3)=   0.000000
     celldm(4)=   0.000000  celldm(5)=   0.000000  celldm(6)=   0.000000

     crystal axes: (cart. coord. in units of alat)
               a(1) = (   0.500000   0.500000   0.500000 )  
               a(2) = (  -0.500000   0.500000   0.500000 )  
               a(3) = (  -0.500000  -0.500000   0.500000 )  

     reciprocal axes: (cart. coord. in units 2 pi/alat)
               b(1) = (  1.000000  0.000000  1.000000 )  
               b(2) = ( -1.000000  1.000000  0.000000 )  
               b(3) = (  0.000000 -1.000000  1.000000 )  


     PseudoPot. # 1 for Fe read from file:
     ./Fe.pbe-spn-kjpaw_psl.0.2.1.UPF
     MD5 check sum: a0a08122d52b112de96d1da1d7dd020f
     Pseudo is Projector augmented-wave + core cor, Zval = 16.0
     Generated using "atomic" code by A. Dal Corso  v.5.0.2 svn rev. 9415
     Shape of augmentation charge: PSQ
     Using radial grid of 1191 points,  6 beta functions with: 
                l(1) =   0
                l(2) =   0
                l(3) =   1
                l(4) =   1
                l(5) =   2
                l(6) =   2
     Q(r) pseudized with 0 coefficients 


     atomic species   valence    mass     pseudopotential
        Fe            16.00    55.85000     Fe( 1.00)

     Starting magnetic structure 
     atomic species   magnetization
        Fe           0.700

     48 Sym. Ops., with inversion, found



   Cartesian axes

     site n.     atom                  positions (alat units)
         1           Fe  tau(   1) = (   0.0000000   0.0000000   0.0000000  )

     number of k points=   168  Marzari-Vanderbilt smearing, width (Ry)=  0.0250

     Number of k-points >= 100: set verbosity='high' to print them.

     Dense  grid:     5233 G-vectors     FFT dimensions: (  24,  24,  24)

     Smooth grid:     3781 G-vectors     FFT dimensions: (  24,  24,  24)

     Largest allocated arrays     est. size (Mb)     dimensions
        Kohn-Sham Wavefunctions         0.09 Mb     (     478,   12)
        NL pseudopotentials             0.13 Mb     (     478,   18)
        Each V/rho on FFT grid          0.42 Mb     (   13824,   2)
        Each G-vector array             0.04 Mb     (    5233)
        G-vector shells                 0.00 Mb     (      86)
     Largest temporary arrays     est. size (Mb)     dimensions
        Auxiliary wavefunctions         0.35 Mb     (     478,   48)
        Each subspace H/S matrix        0.04 Mb     (      48,   48)
        Each <psi_i|beta_j> matrix      0.00 Mb     (      18,   12)
        Arrays for rho mixing           1.69 Mb     (   13824,    8)

     Check: negative/imaginary core charge=   -0.000425    0.000000

     Initial potential from superposition of free atoms

     starting charge   15.99956, renormalised to   16.00000
     Starting wfc are   13 randomized atomic wfcs

     total cpu time spent up to now is        3.0 secs

     Self-consistent Calculation

     iteration #  1     ecut=    50.00 Ry     beta=0.70
     Davidson diagonalization with overlap
     ethr =  1.00E-02,  avg # of iterations =  3.2

     negative rho (up, down):  0.000E+00 3.313E-04

     Magnetic moment per site:
     atom:    1    charge:   14.2789    magn:    5.6834    constr:    0.0000

     total cpu time spent up to now is        7.4 secs

     total energy              =    -328.98534844 Ry
     Harris-Foulkes estimate   =    -328.05488451 Ry
     estimated scf accuracy    <       1.51577446 Ry

     total magnetization       =     3.84 Bohr mag/cell
     absolute magnetization    =     3.87 Bohr mag/cell

     iteration #  2     ecut=    50.00 Ry     beta=0.70
     Davidson diagonalization with overlap
     ethr =  9.47E-03,  avg # of iterations =  1.2

     negative rho (up, down):  0.000E+00 3.491E-04

     Magnetic moment per site:
     atom:    1    charge:   14.5064    magn:    3.4471    constr:    0.0000

     total cpu time spent up to now is       10.9 secs

     total energy              =    -329.16489555 Ry
     Harris-Foulkes estimate   =    -329.09932149 Ry
     estimated scf accuracy    <       0.34536677 Ry

     total magnetization       =     3.03 Bohr mag/cell
     absolute magnetization    =     3.16 Bohr mag/cell

     iteration #  3     ecut=    50.00 Ry     beta=0.70
     Davidson diagonalization with overlap
     ethr =  2.16E-03,  avg # of iterations =  2.0

     negative rho (up, down):  0.000E+00 3.521E-04

     Magnetic moment per site:
     atom:    1    charge:   14.3896    magn:    2.4594    constr:    0.0000

     total cpu time spent up to now is       14.8 secs

     total energy              =    -329.18276080 Ry
     Harris-Foulkes estimate   =    -329.34381403 Ry
     estimated scf accuracy    <       0.46349102 Ry

     total magnetization       =     2.49 Bohr mag/cell
     absolute magnetization    =     2.63 Bohr mag/cell

     iteration #  4     ecut=    50.00 Ry     beta=0.70
     Davidson diagonalization with overlap
     ethr =  2.16E-03,  avg # of iterations =  2.0

     negative rho (up, down):  0.000E+00 1.950E-04

     Magnetic moment per site:
     atom:    1    charge:   14.4184    magn:    2.2258    constr:    0.0000

     total cpu time spent up to now is       18.4 secs

     total energy              =    -329.25870813 Ry
     Harris-Foulkes estimate   =    -329.25778691 Ry
     estimated scf accuracy    <       0.00223428 Ry

     total magnetization       =     2.27 Bohr mag/cell
     absolute magnetization    =     2.44 Bohr mag/cell

     iteration #  5     ecut=    50.00 Ry     beta=0.70
     Davidson diagonalization with overlap
     ethr =  1.40E-05,  avg # of iterations =  3.4

     negative rho (up, down):  0.000E+00 1.788E-04

     Magnetic moment per site:
     atom:    1    charge:   14.4069    magn:    2.2032    constr:    0.0000

     total cpu time spent up to now is       23.3 secs

     total energy              =    -329.26227016 Ry
     Harris-Foulkes estimate   =    -329.26200696 Ry
     estimated scf accuracy    <       0.00050486 Ry

     total magnetization       =     2.14 Bohr mag/cell
     absolute magnetization    =     2.29 Bohr mag/cell

     iteration #  6     ecut=    50.00 Ry     beta=0.70
     Davidson diagonalization with overlap
     ethr =  3.16E-06,  avg # of iterations =  2.0

     negative rho (up, down):  0.000E+00 1.193E-04

     Magnetic moment per site:
     atom:    1    charge:   14.4036    magn:    2.1052    constr:    0.0000

     total cpu time spent up to now is       27.0 secs

     total energy              =    -329.26230340 Ry
     Harris-Foulkes estimate   =    -329.26250090 Ry
     estimated scf accuracy    <       0.00038777 Ry

     total magnetization       =     2.11 Bohr mag/cell
     absolute magnetization    =     2.25 Bohr mag/cell

     iteration #  7     ecut=    50.00 Ry     beta=0.70
     Davidson diagonalization with overlap
     ethr =  2.42E-06,  avg # of iterations =  1.5

     negative rho (up, down):  0.000E+00 1.509E-04

     Magnetic moment per site:
     atom:    1    charge:   14.4080    magn:    2.1581    constr:    0.0000

     total cpu time spent up to now is       30.4 secs

     total energy              =    -329.26271970 Ry
     Harris-Foulkes estimate   =    -329.26261819 Ry
     estimated scf accuracy    <       0.00006251 Ry

     total magnetization       =     2.07 Bohr mag/cell
     absolute magnetization    =     2.19 Bohr mag/cell

     iteration #  8     ecut=    50.00 Ry     beta=0.70
     Davidson diagonalization with overlap
     ethr =  3.91E-07,  avg # of iterations =  2.0

     negative rho (up, down):  0.000E+00 1.464E-04

     Magnetic moment per site:
     atom:    1    charge:   14.4085    magn:    2.1414    constr:    0.0000

     total cpu time spent up to now is       33.9 secs

     total energy              =    -329.26276595 Ry
     Harris-Foulkes estimate   =    -329.26275255 Ry
     estimated scf accuracy    <       0.00002395 Ry

     total magnetization       =     2.09 Bohr mag/cell
     absolute magnetization    =     2.21 Bohr mag/cell

     iteration #  9     ecut=    50.00 Ry     beta=0.70
     Davidson diagonalization with overlap
     ethr =  1.50E-07,  avg # of iterations =  2.1

     negative rho (up, down):  0.000E+00 1.426E-04

     Magnetic moment per site:
     atom:    1    charge:   14.4076    magn:    2.1314    constr:    0.0000

     total cpu time spent up to now is       37.3 secs

     total energy              =    -329.26277798 Ry
     Harris-Foulkes estimate   =    -329.26277568 Ry
     estimated scf accuracy    <       0.00000535 Ry

     total magnetization       =     2.08 Bohr mag/cell
     absolute magnetization    =     2.20 Bohr mag/cell

     iteration # 10     ecut=    50.00 Ry     beta=0.70
     Davidson diagonalization with overlap
     ethr =  3.34E-08,  avg # of iterations =  1.6

     negative rho (up, down):  0.000E+00 1.409E-04

     Magnetic moment per site:
     atom:    1    charge:   14.4074    magn:    2.1276    constr:    0.0000

     total cpu time spent up to now is       40.7 secs

     total energy              =    -329.26278055 Ry
     Harris-Foulkes estimate   =    -329.26277995 Ry
     estimated scf accuracy    <       0.00000039 Ry

     total magnetization       =     2.08 Bohr mag/cell
     absolute magnetization    =     2.20 Bohr mag/cell

     iteration # 11     ecut=    50.00 Ry     beta=0.70
     Davidson diagonalization with overlap
     ethr =  2.43E-09,  avg # of iterations =  2.5

     negative rho (up, down):  0.000E+00 1.413E-04

     Magnetic moment per site:
     atom:    1    charge:   14.4075    magn:    2.1281    constr:    0.0000

     total cpu time spent up to now is       44.6 secs

     total energy              =    -329.26278139 Ry
     Harris-Foulkes estimate   =    -329.26278103 Ry
     estimated scf accuracy    <       0.00000002 Ry

     total magnetization       =     2.08 Bohr mag/cell
     absolute magnetization    =     2.20 Bohr mag/cell

     iteration # 12     ecut=    50.00 Ry     beta=0.70
     Davidson diagonalization with overlap
     ethr =  1.29E-10,  avg # of iterations =  2.4

     negative rho (up, down):  0.000E+00 1.406E-04

     Magnetic moment per site:
     atom:    1    charge:   14.4074    magn:    2.1263    constr:    0.0000

     total cpu time spent up to now is       48.5 secs

     total energy              =    -329.26278127 Ry
     Harris-Foulkes estimate   =    -329.26278140 Ry
     estimated scf accuracy    <       0.00000004 Ry

     total magnetization       =     2.08 Bohr mag/cell
     absolute magnetization    =     2.20 Bohr mag/cell

     iteration # 13     ecut=    50.00 Ry     beta=0.70
     Davidson diagonalization with overlap
     ethr =  1.29E-10,  avg # of iterations =  2.0

     negative rho (up, down):  0.000E+00 1.409E-04

     Magnetic moment per site:
     atom:    1    charge:   14.4074    magn:    2.1270    constr:    0.0000

     total cpu time spent up to now is       52.4 secs

     total energy              =    -329.26278147 Ry
     Harris-Foulkes estimate   =    -329.26278136 Ry
     estimated scf accuracy    <       0.00000002 Ry

     total magnetization       =     2.08 Bohr mag/cell
     absolute magnetization    =     2.20 Bohr mag/cell

     iteration # 14     ecut=    50.00 Ry     beta=0.70
     Davidson diagonalization with overlap
     ethr =  9.97E-11,  avg # of iterations =  1.7

     negative rho (up, down):  0.000E+00 1.409E-04

     Magnetic moment per site:
     atom:    1    charge:   14.4074    magn:    2.1269    constr:    0.0000

     total cpu time spent up to now is       56.2 secs

     End of self-consistent calculation

     Number of k-points >= 100: set verbosity='high' to print the bands.

     the Fermi energy is    17.9625 ev

!    total energy              =    -329.26278148 Ry
     Harris-Foulkes estimate   =    -329.26278148 Ry
     estimated scf accuracy    <          1.5E-09 Ry

     total all-electron energy =     -2545.559317 Ry

     The total energy is the sum of the following terms:

     one-electron contribution =    -110.99507230 Ry
     hartree contribution      =      65.86194654 Ry
     xc contribution           =     -34.81187058 Ry
     ewald contribution        =    -173.16798571 Ry
     one-center paw contrib.   =     -76.15081411 Ry
     smearing contrib. (-TS)   =       0.00101467 Ry

     total magnetization       =     2.08 Bohr mag/cell
     absolute magnetization    =     2.20 Bohr mag/cell

     convergence has been achieved in  14 iterations

     Forces acting on atoms (Ry/au):


     negative rho (up, down):  0.000E+00 1.409E-04
     atom    1 type  1   force =     0.00000000    0.00000000    0.00000000

     Total force =     0.000000     Total SCF correction =     0.000000


     entering subroutine stress ...


     negative rho (up, down):  0.000E+00 1.409E-04
          total   stress  (Ry/bohr**3)                   (kbar)     P= -122.00
  -0.00082931   0.00000000  -0.00000000       -122.00      0.00     -0.00
   0.00000000  -0.00082931   0.00000000          0.00   -122.00      0.00
  -0.00000000   0.00000000  -0.00082931         -0.00      0.00   -122.00


     Writing output data file Fe_bcc.save

     init_run     :      2.37s CPU      2.42s WALL (       1 calls)
     electrons    :     52.82s CPU     53.23s WALL (       1 calls)
     forces       :      0.17s CPU      0.17s WALL (       1 calls)
     stress       :      0.76s CPU      0.78s WALL (       1 calls)

     Called by init_run:
     wfcinit      :      1.28s CPU      1.29s WALL (       1 calls)
     potinit      :      0.56s CPU      0.59s WALL (       1 calls)

     Called by electrons:
     c_bands      :     38.97s CPU     39.14s WALL (      14 calls)
     sum_band     :      6.77s CPU      6.84s WALL (      14 calls)
     v_of_rho     :      0.32s CPU      0.33s WALL (      15 calls)
     newd         :      0.22s CPU      0.23s WALL (      15 calls)
     mix_rho      :      0.04s CPU      0.04s WALL (      14 calls)

     Called by c_bands:
     init_us_2    :      0.85s CPU      0.85s WALL (    5208 calls)
     cegterg      :     37.30s CPU     37.43s WALL (    2352 calls)

     Called by *egterg:
     h_psi        :     32.07s CPU     32.36s WALL (    7495 calls)
     s_psi        :      0.82s CPU      0.68s WALL (    7495 calls)
     g_psi        :      0.18s CPU      0.19s WALL (    4975 calls)
     cdiaghg      :      2.04s CPU      2.06s WALL (    7327 calls)

     Called by h_psi:
     add_vuspsi   :      0.84s CPU      0.74s WALL (    7495 calls)

     General routines
     calbec       :      0.91s CPU      0.93s WALL (   10183 calls)
     fft          :      0.17s CPU      0.17s WALL (     499 calls)
     ffts         :      0.02s CPU      0.02s WALL (      58 calls)
     fftw         :     32.70s CPU     33.02s WALL (  167212 calls)
     interpolate  :      0.04s CPU      0.04s WALL (      58 calls)
     davcio       :      0.00s CPU      0.01s WALL (     168 calls)


     PAW routines
     PAW_pot      :      7.02s CPU      7.19s WALL (      15 calls)
     PAW_symme    :      0.02s CPU      0.02s WALL (      29 calls)

     PWSCF        :    56.83s CPU        57.47s WALL


   This run was terminated on:  10:47:48  11May2015            

=------------------------------------------------------------------------------=
   JOB DONE.
=------------------------------------------------------------------------------=
