
     Program PWSCF v.5.1.2 starts on 11May2015 at 10:15:17 

     This program is part of the open-source Quantum ESPRESSO suite
     for quantum simulation of materials; please cite
         "P. Giannozzi et al., J. Phys.:Condens. Matter 21 395502 (2009);
          URL http://www.quantum-espresso.org", 
     in publications or presentations arising from this work. More details at
     http://www.quantum-espresso.org/quote

     Serial version
     Reading input from Fe_bcc_5.44_7.pw.in

     Current dimensions of program PWSCF are:
     Max number of different atomic species (ntypx) = 10
     Max number of k-points (npk) =  40000
     Max angular momentum in pseudopotentials (lmaxx) =  3
               file Fe.pbe-spn-kjpaw_psl.0.2.1.UPF: wavefunction(s)  3D renormalized

     G-vector sticks info
     --------------------
     sticks:   dense  smooth     PW     G-vecs:    dense   smooth      PW
     Sum         411     333    103                 5425     3805     683

     Generating pointlists ...
     new r_m :   0.3572 (alat units)  1.9434 (a.u.) for type    1


     bravais-lattice index     =            3
     lattice parameter (alat)  =       5.4400  a.u.
     unit-cell volume          =      80.4946 (a.u.)^3
     number of atoms/cell      =            1
     number of atomic types    =            1
     number of electrons       =        16.00
     number of Kohn-Sham states=           12
     kinetic-energy cutoff     =      50.0000  Ry
     charge density cutoff     =     250.0000  Ry
     convergence threshold     =      1.0E-08
     mixing beta               =       0.7000
     number of iterations used =            8  plain     mixing
     Exchange-correlation      =  SLA  PW   PBX  PBC ( 1  4  3  4 0 0)

     celldm(1)=   5.440000  celldm(2)=   0.000000  celldm(3)=   0.000000
     celldm(4)=   0.000000  celldm(5)=   0.000000  celldm(6)=   0.000000

     crystal axes: (cart. coord. in units of alat)
               a(1) = (   0.500000   0.500000   0.500000 )  
               a(2) = (  -0.500000   0.500000   0.500000 )  
               a(3) = (  -0.500000  -0.500000   0.500000 )  

     reciprocal axes: (cart. coord. in units 2 pi/alat)
               b(1) = (  1.000000  0.000000  1.000000 )  
               b(2) = ( -1.000000  1.000000  0.000000 )  
               b(3) = (  0.000000 -1.000000  1.000000 )  


     PseudoPot. # 1 for Fe read from file:
     ./Fe.pbe-spn-kjpaw_psl.0.2.1.UPF
     MD5 check sum: a0a08122d52b112de96d1da1d7dd020f
     Pseudo is Projector augmented-wave + core cor, Zval = 16.0
     Generated using "atomic" code by A. Dal Corso  v.5.0.2 svn rev. 9415
     Shape of augmentation charge: PSQ
     Using radial grid of 1191 points,  6 beta functions with: 
                l(1) =   0
                l(2) =   0
                l(3) =   1
                l(4) =   1
                l(5) =   2
                l(6) =   2
     Q(r) pseudized with 0 coefficients 


     atomic species   valence    mass     pseudopotential
        Fe            16.00    55.85000     Fe( 1.00)

     Starting magnetic structure 
     atomic species   magnetization
        Fe           0.700

     48 Sym. Ops., with inversion, found



   Cartesian axes

     site n.     atom                  positions (alat units)
         1           Fe  tau(   1) = (   0.0000000   0.0000000   0.0000000  )

     number of k points=    40  Marzari-Vanderbilt smearing, width (Ry)=  0.0250
                       cart. coord. in units 2pi/alat
        k(    1) = (   0.0000000   0.0000000   0.0000000), wk =   0.0029155
        k(    2) = (   0.0000000  -0.1428571   0.1428571), wk =   0.0349854
        k(    3) = (   0.0000000  -0.2857143   0.2857143), wk =   0.0349854
        k(    4) = (   0.0000000  -0.4285714   0.4285714), wk =   0.0349854
        k(    5) = (  -0.1428571  -0.1428571   0.2857143), wk =   0.0699708
        k(    6) = (  -0.1428571  -0.2857143   0.4285714), wk =   0.1399417
        k(    7) = (  -0.1428571   0.5714286  -0.4285714), wk =   0.0699708
        k(    8) = (  -0.2857143   0.7142857  -0.4285714), wk =   0.0699708
        k(    9) = (   0.0000000   0.0000000   0.2857143), wk =   0.0174927
        k(   10) = (   0.0000000  -0.1428571   0.4285714), wk =   0.0699708
        k(   11) = (   0.0000000  -0.2857143   0.5714286), wk =   0.0699708
        k(   12) = (  -0.1428571  -0.1428571   0.5714286), wk =   0.0699708
        k(   13) = (  -0.1428571   0.7142857  -0.2857143), wk =   0.0699708
        k(   14) = (  -0.2857143   0.2857143   0.2857143), wk =   0.0233236
        k(   15) = (   0.5714286  -0.5714286   0.2857143), wk =   0.0699708
        k(   16) = (   0.4285714  -0.5714286   0.4285714), wk =   0.0233236
        k(   17) = (   0.0000000   0.0000000   0.5714286), wk =   0.0174927
        k(   18) = (   0.0000000  -0.1428571   0.7142857), wk =   0.0699708
        k(   19) = (  -0.1428571   0.8571429  -0.1428571), wk =   0.0233236
        k(   20) = (   0.0000000   0.0000000   0.8571429), wk =   0.0174927
        k(   21) = (   0.0000000   0.0000000   0.0000000), wk =   0.0029155
        k(   22) = (   0.0000000  -0.1428571   0.1428571), wk =   0.0349854
        k(   23) = (   0.0000000  -0.2857143   0.2857143), wk =   0.0349854
        k(   24) = (   0.0000000  -0.4285714   0.4285714), wk =   0.0349854
        k(   25) = (  -0.1428571  -0.1428571   0.2857143), wk =   0.0699708
        k(   26) = (  -0.1428571  -0.2857143   0.4285714), wk =   0.1399417
        k(   27) = (  -0.1428571   0.5714286  -0.4285714), wk =   0.0699708
        k(   28) = (  -0.2857143   0.7142857  -0.4285714), wk =   0.0699708
        k(   29) = (   0.0000000   0.0000000   0.2857143), wk =   0.0174927
        k(   30) = (   0.0000000  -0.1428571   0.4285714), wk =   0.0699708
        k(   31) = (   0.0000000  -0.2857143   0.5714286), wk =   0.0699708
        k(   32) = (  -0.1428571  -0.1428571   0.5714286), wk =   0.0699708
        k(   33) = (  -0.1428571   0.7142857  -0.2857143), wk =   0.0699708
        k(   34) = (  -0.2857143   0.2857143   0.2857143), wk =   0.0233236
        k(   35) = (   0.5714286  -0.5714286   0.2857143), wk =   0.0699708
        k(   36) = (   0.4285714  -0.5714286   0.4285714), wk =   0.0233236
        k(   37) = (   0.0000000   0.0000000   0.5714286), wk =   0.0174927
        k(   38) = (   0.0000000  -0.1428571   0.7142857), wk =   0.0699708
        k(   39) = (  -0.1428571   0.8571429  -0.1428571), wk =   0.0233236
        k(   40) = (   0.0000000   0.0000000   0.8571429), wk =   0.0174927

     Dense  grid:     5425 G-vectors     FFT dimensions: (  24,  24,  24)

     Smooth grid:     3805 G-vectors     FFT dimensions: (  24,  24,  24)

     Largest allocated arrays     est. size (Mb)     dimensions
        Kohn-Sham Wavefunctions         0.09 Mb     (     488,   12)
        NL pseudopotentials             0.13 Mb     (     488,   18)
        Each V/rho on FFT grid          0.42 Mb     (   13824,   2)
        Each G-vector array             0.04 Mb     (    5425)
        G-vector shells                 0.00 Mb     (      88)
     Largest temporary arrays     est. size (Mb)     dimensions
        Auxiliary wavefunctions         0.36 Mb     (     488,   48)
        Each subspace H/S matrix        0.04 Mb     (      48,   48)
        Each <psi_i|beta_j> matrix      0.00 Mb     (      18,   12)
        Arrays for rho mixing           1.69 Mb     (   13824,    8)

     Check: negative/imaginary core charge=   -0.000427    0.000000

     Initial potential from superposition of free atoms

     starting charge   15.99956, renormalised to   16.00000
     Starting wfc are   13 randomized atomic wfcs

     total cpu time spent up to now is        1.7 secs

     Self-consistent Calculation

     iteration #  1     ecut=    50.00 Ry     beta=0.70
     Davidson diagonalization with overlap
     ethr =  1.00E-02,  avg # of iterations =  3.3

     negative rho (up, down):  0.000E+00 3.543E-04

     Magnetic moment per site:
     atom:    1    charge:   14.2984    magn:    5.7169    constr:    0.0000

     total cpu time spent up to now is        3.1 secs

     total energy              =    -328.98784174 Ry
     Harris-Foulkes estimate   =    -328.06895174 Ry
     estimated scf accuracy    <       1.50231509 Ry

     total magnetization       =     3.87 Bohr mag/cell
     absolute magnetization    =     3.91 Bohr mag/cell

     iteration #  2     ecut=    50.00 Ry     beta=0.70
     Davidson diagonalization with overlap
     ethr =  9.39E-03,  avg # of iterations =  1.2

     negative rho (up, down):  0.000E+00 3.767E-04

     Magnetic moment per site:
     atom:    1    charge:   14.5310    magn:    3.5417    constr:    0.0000

     total cpu time spent up to now is        4.3 secs

     total energy              =    -329.15752635 Ry
     Harris-Foulkes estimate   =    -329.10401909 Ry
     estimated scf accuracy    <       0.35478888 Ry

     total magnetization       =     3.07 Bohr mag/cell
     absolute magnetization    =     3.20 Bohr mag/cell

     iteration #  3     ecut=    50.00 Ry     beta=0.70
     Davidson diagonalization with overlap
     ethr =  2.22E-03,  avg # of iterations =  2.1

     negative rho (up, down):  0.000E+00 3.822E-04

     Magnetic moment per site:
     atom:    1    charge:   14.4146    magn:    2.4723    constr:    0.0000

     total cpu time spent up to now is        5.7 secs

     total energy              =    -329.17939945 Ry
     Harris-Foulkes estimate   =    -329.34698589 Ry
     estimated scf accuracy    <       0.49772377 Ry

     total magnetization       =     2.48 Bohr mag/cell
     absolute magnetization    =     2.64 Bohr mag/cell

     iteration #  4     ecut=    50.00 Ry     beta=0.70
     Davidson diagonalization with overlap
     ethr =  2.22E-03,  avg # of iterations =  2.0

     negative rho (up, down):  0.000E+00 2.398E-04

     Magnetic moment per site:
     atom:    1    charge:   14.4439    magn:    2.3101    constr:    0.0000

     total cpu time spent up to now is        7.0 secs

     total energy              =    -329.25896833 Ry
     Harris-Foulkes estimate   =    -329.25783342 Ry
     estimated scf accuracy    <       0.00195407 Ry

     total magnetization       =     2.32 Bohr mag/cell
     absolute magnetization    =     2.49 Bohr mag/cell

     iteration #  5     ecut=    50.00 Ry     beta=0.70
     Davidson diagonalization with overlap
     ethr =  1.22E-05,  avg # of iterations =  3.4

     negative rho (up, down):  0.000E+00 2.241E-04

     Magnetic moment per site:
     atom:    1    charge:   14.4342    magn:    2.2889    constr:    0.0000

     total cpu time spent up to now is        8.8 secs

     total energy              =    -329.26205125 Ry
     Harris-Foulkes estimate   =    -329.26183029 Ry
     estimated scf accuracy    <       0.00042765 Ry

     total magnetization       =     2.24 Bohr mag/cell
     absolute magnetization    =     2.37 Bohr mag/cell

     iteration #  6     ecut=    50.00 Ry     beta=0.70
     Davidson diagonalization with overlap
     ethr =  2.67E-06,  avg # of iterations =  1.9

     negative rho (up, down):  0.000E+00 1.773E-04

     Magnetic moment per site:
     atom:    1    charge:   14.4290    magn:    2.2348    constr:    0.0000

     total cpu time spent up to now is       10.0 secs

     total energy              =    -329.26213702 Ry
     Harris-Foulkes estimate   =    -329.26219353 Ry
     estimated scf accuracy    <       0.00023922 Ry

     total magnetization       =     2.22 Bohr mag/cell
     absolute magnetization    =     2.35 Bohr mag/cell

     iteration #  7     ecut=    50.00 Ry     beta=0.70
     Davidson diagonalization with overlap
     ethr =  1.50E-06,  avg # of iterations =  1.5

     negative rho (up, down):  0.000E+00 2.006E-04

     Magnetic moment per site:
     atom:    1    charge:   14.4352    magn:    2.2661    constr:    0.0000

     total cpu time spent up to now is       11.3 secs

     total energy              =    -329.26237724 Ry
     Harris-Foulkes estimate   =    -329.26232172 Ry
     estimated scf accuracy    <       0.00003438 Ry

     total magnetization       =     2.20 Bohr mag/cell
     absolute magnetization    =     2.31 Bohr mag/cell

     iteration #  8     ecut=    50.00 Ry     beta=0.70
     Davidson diagonalization with overlap
     ethr =  2.15E-07,  avg # of iterations =  1.8

     negative rho (up, down):  0.000E+00 1.951E-04

     Magnetic moment per site:
     atom:    1    charge:   14.4337    magn:    2.2513    constr:    0.0000

     total cpu time spent up to now is       12.6 secs

     total energy              =    -329.26239738 Ry
     Harris-Foulkes estimate   =    -329.26239467 Ry
     estimated scf accuracy    <       0.00002561 Ry

     total magnetization       =     2.21 Bohr mag/cell
     absolute magnetization    =     2.32 Bohr mag/cell

     iteration #  9     ecut=    50.00 Ry     beta=0.70
     Davidson diagonalization with overlap
     ethr =  1.60E-07,  avg # of iterations =  1.5

     negative rho (up, down):  0.000E+00 1.928E-04

     Magnetic moment per site:
     atom:    1    charge:   14.4327    magn:    2.2476    constr:    0.0000

     total cpu time spent up to now is       13.8 secs

     total energy              =    -329.26240822 Ry
     Harris-Foulkes estimate   =    -329.26240679 Ry
     estimated scf accuracy    <       0.00000195 Ry

     total magnetization       =     2.21 Bohr mag/cell
     absolute magnetization    =     2.32 Bohr mag/cell

     iteration # 10     ecut=    50.00 Ry     beta=0.70
     Davidson diagonalization with overlap
     ethr =  1.22E-08,  avg # of iterations =  2.0

     negative rho (up, down):  0.000E+00 1.925E-04

     Magnetic moment per site:
     atom:    1    charge:   14.4327    magn:    2.2466    constr:    0.0000

     total cpu time spent up to now is       15.1 secs

     total energy              =    -329.26240906 Ry
     Harris-Foulkes estimate   =    -329.26240869 Ry
     estimated scf accuracy    <       0.00000007 Ry

     total magnetization       =     2.20 Bohr mag/cell
     absolute magnetization    =     2.31 Bohr mag/cell

     iteration # 11     ecut=    50.00 Ry     beta=0.70
     Davidson diagonalization with overlap
     ethr =  4.61E-10,  avg # of iterations =  3.0

     negative rho (up, down):  0.000E+00 1.926E-04

     Magnetic moment per site:
     atom:    1    charge:   14.4327    magn:    2.2467    constr:    0.0000

     total cpu time spent up to now is       16.5 secs

     total energy              =    -329.26240920 Ry
     Harris-Foulkes estimate   =    -329.26240915 Ry
     estimated scf accuracy    <       0.00000003 Ry

     total magnetization       =     2.20 Bohr mag/cell
     absolute magnetization    =     2.31 Bohr mag/cell

     iteration # 12     ecut=    50.00 Ry     beta=0.70
     Davidson diagonalization with overlap
     ethr =  1.93E-10,  avg # of iterations =  1.1

     negative rho (up, down):  0.000E+00 1.926E-04

     Magnetic moment per site:
     atom:    1    charge:   14.4327    magn:    2.2467    constr:    0.0000

     total cpu time spent up to now is       17.7 secs

     total energy              =    -329.26240919 Ry
     Harris-Foulkes estimate   =    -329.26240920 Ry
     estimated scf accuracy    <       0.00000005 Ry

     total magnetization       =     2.20 Bohr mag/cell
     absolute magnetization    =     2.31 Bohr mag/cell

     iteration # 13     ecut=    50.00 Ry     beta=0.70
     Davidson diagonalization with overlap
     ethr =  1.93E-10,  avg # of iterations =  1.2

     negative rho (up, down):  0.000E+00 1.926E-04

     Magnetic moment per site:
     atom:    1    charge:   14.4327    magn:    2.2467    constr:    0.0000

     total cpu time spent up to now is       18.9 secs

     total energy              =    -329.26240920 Ry
     Harris-Foulkes estimate   =    -329.26240919 Ry
     estimated scf accuracy    <       0.00000004 Ry

     total magnetization       =     2.20 Bohr mag/cell
     absolute magnetization    =     2.31 Bohr mag/cell

     iteration # 14     ecut=    50.00 Ry     beta=0.70
     Davidson diagonalization with overlap
     ethr =  1.93E-10,  avg # of iterations =  1.0

     negative rho (up, down):  0.000E+00 1.926E-04

     Magnetic moment per site:
     atom:    1    charge:   14.4327    magn:    2.2466    constr:    0.0000

     total cpu time spent up to now is       20.0 secs

     total energy              =    -329.26240920 Ry
     Harris-Foulkes estimate   =    -329.26240920 Ry
     estimated scf accuracy    <       0.00000004 Ry

     total magnetization       =     2.20 Bohr mag/cell
     absolute magnetization    =     2.31 Bohr mag/cell

     iteration # 15     ecut=    50.00 Ry     beta=0.70
     Davidson diagonalization with overlap
     ethr =  1.93E-10,  avg # of iterations =  1.0

     negative rho (up, down):  0.000E+00 1.926E-04

     Magnetic moment per site:
     atom:    1    charge:   14.4327    magn:    2.2467    constr:    0.0000

     total cpu time spent up to now is       21.2 secs

     total energy              =    -329.26240919 Ry
     Harris-Foulkes estimate   =    -329.26240920 Ry
     estimated scf accuracy    <       0.00000003 Ry

     total magnetization       =     2.20 Bohr mag/cell
     absolute magnetization    =     2.31 Bohr mag/cell

     iteration # 16     ecut=    50.00 Ry     beta=0.70
     Davidson diagonalization with overlap
     ethr =  1.93E-10,  avg # of iterations =  1.0

     negative rho (up, down):  0.000E+00 1.925E-04

     Magnetic moment per site:
     atom:    1    charge:   14.4327    magn:    2.2464    constr:    0.0000

     total cpu time spent up to now is       22.3 secs

     total energy              =    -329.26240922 Ry
     Harris-Foulkes estimate   =    -329.26240919 Ry
     estimated scf accuracy    <       0.00000004 Ry

     total magnetization       =     2.20 Bohr mag/cell
     absolute magnetization    =     2.31 Bohr mag/cell

     iteration # 17     ecut=    50.00 Ry     beta=0.70
     Davidson diagonalization with overlap
     ethr =  1.93E-10,  avg # of iterations =  1.0

     negative rho (up, down):  0.000E+00 1.924E-04

     Magnetic moment per site:
     atom:    1    charge:   14.4327    magn:    2.2460    constr:    0.0000

     total cpu time spent up to now is       23.4 secs

     total energy              =    -329.26240925 Ry
     Harris-Foulkes estimate   =    -329.26240923 Ry
     estimated scf accuracy    <       0.00000002 Ry

     total magnetization       =     2.20 Bohr mag/cell
     absolute magnetization    =     2.31 Bohr mag/cell

     iteration # 18     ecut=    50.00 Ry     beta=0.70
     Davidson diagonalization with overlap
     ethr =  1.33E-10,  avg # of iterations =  1.1

     negative rho (up, down):  0.000E+00 1.923E-04

     Magnetic moment per site:
     atom:    1    charge:   14.4327    magn:    2.2458    constr:    0.0000

     total cpu time spent up to now is       24.6 secs

     End of self-consistent calculation

 ------ SPIN UP ------------


          k = 0.0000 0.0000 0.0000 (   459 PWs)   bands (ev):

   -70.8479 -36.6795 -36.6795 -36.6795   8.9581  15.0543  15.0543  15.0543
    15.9974  15.9974  41.6180  41.6180

          k = 0.0000-0.1429 0.1429 (   481 PWs)   bands (ev):

   -70.8368 -36.7482 -36.7034 -36.6813   9.7556  14.8509  14.9998  15.4695
    15.8614  16.0160  37.3816  40.1526

          k = 0.0000-0.2857 0.2857 (   483 PWs)   bands (ev):

   -70.8098 -36.8970 -36.7537 -36.6816  11.6525  14.4133  14.9304  15.9731
    16.0804  16.4944  30.8219  37.1819

          k = 0.0000-0.4286 0.4286 (   480 PWs)   bands (ev):

   -70.7879 -37.0142 -36.7935 -36.6812  12.4732  14.0802  16.0525  16.1559
    16.9944  17.4402  25.2517  35.3463

          k =-0.1429-0.1429 0.2857 (   482 PWs)   bands (ev):

   -70.8173 -36.8495 -36.7302 -36.6973  11.1739  14.6101  14.6507  15.7758
    16.1407  16.3415  34.0432  35.1002

          k =-0.1429-0.2857 0.4286 (   485 PWs)   bands (ev):

   -70.7930 -36.9621 -36.7904 -36.7033  12.7392  14.2083  14.8366  15.9990
    16.3339  17.9457  28.1175  32.4506

          k =-0.1429 0.5714-0.4286 (   484 PWs)   bands (ev):

   -70.7821 -37.0088 -36.8211 -36.7040  12.8662  14.0893  15.4022  16.0975
    16.7468  19.8385  24.2166  31.6022

          k =-0.2857 0.7143-0.4286 (   480 PWs)   bands (ev):

   -70.7792 -36.9623 -36.8692 -36.7224  13.5820  13.9959  14.5571  16.1845
    16.4780  21.1502  25.9987  27.1437

          k = 0.0000 0.0000 0.2857 (   482 PWs)   bands (ev):

   -70.8254 -36.7630 -36.7266 -36.7266  10.5006  15.1006  15.1006  15.3413
    15.4699  16.2588  36.8578  38.5382

          k = 0.0000-0.1429 0.4286 (   477 PWs)   bands (ev):

   -70.7994 -36.8885 -36.7781 -36.7334  12.2129  14.5308  14.8396  15.6400
    16.4077  16.7072  31.3974  35.6507

          k = 0.0000-0.2857 0.5714 (   480 PWs)   bands (ev):

   -70.7788 -36.9978 -36.8193 -36.7297  12.8839  14.5581  14.5992  15.8736
    17.3846  18.8532  25.5983  33.7252

          k =-0.1429-0.1429 0.5714 (   473 PWs)   bands (ev):

   -70.7772 -36.9524 -36.8437 -36.7561  13.2758  13.8456  14.9384  15.9101
    16.8177  18.8873  28.9142  29.5283

          k =-0.1429 0.7143-0.2857 (   477 PWs)   bands (ev):

   -70.7675 -36.9780 -36.8853 -36.7572  13.3537  13.9417  14.6160  16.2032
    17.1124  22.0580  24.5774  28.3748

          k =-0.2857 0.2857 0.2857 (   483 PWs)   bands (ev):

   -70.7991 -36.9389 -36.7377 -36.7377  12.8579  14.1763  14.1763  16.0825
    16.0825  17.9895  31.4970  31.4970

          k = 0.5714-0.5714 0.2857 (   488 PWs)   bands (ev):

   -70.7847 -36.9648 -36.8161 -36.7440  13.4795  13.9759  14.8226  16.1750
    16.1806  20.6038  26.0330  30.1248

          k = 0.4286-0.5714 0.4286 (   484 PWs)   bands (ev):

   -70.7808 -36.8887 -36.8887 -36.7777  13.8154  14.3091  14.3091  16.2167
    16.2167  24.3992  24.3992  26.2827

          k = 0.0000 0.0000 0.5714 (   478 PWs)   bands (ev):

   -70.7766 -36.8873 -36.8328 -36.8328  13.0307  13.8539  15.7153  15.7153
    16.4280  18.1154  32.2002  32.2002

          k = 0.0000-0.1429 0.7143 (   478 PWs)   bands (ev):

   -70.7583 -36.9598 -36.8767 -36.8385  13.1150  13.3291  15.7978  16.1265
    17.2624  21.3423  26.8093  30.0093

          k =-0.1429 0.8571-0.1429 (   472 PWs)   bands (ev):

   -70.7496 -36.9397 -36.9397 -36.8494  12.9996  12.9996  15.8855  17.0688
    17.0688  25.2062  25.2062  26.5076

          k = 0.0000 0.0000 0.8571 (   486 PWs)   bands (ev):

   -70.7421 -36.9333 -36.9231 -36.9231  12.6821  12.6836  17.0224  17.0224
    17.2192  24.4329  27.5270  27.5270

 ------ SPIN DOWN ----------


          k = 0.0000 0.0000 0.0000 (   459 PWs)   bands (ev):

   -68.2017 -34.0811 -34.0811 -34.0811   9.1485  16.8070  16.8070  16.8070
    19.0393  19.0393  41.3880  41.3880

          k = 0.0000-0.1429 0.1429 (   481 PWs)   bands (ev):

   -68.1893 -34.1572 -34.1070 -34.0828   9.9536  16.5651  16.7429  17.2581
    18.8073  19.0612  37.6962  40.1904

          k = 0.0000-0.2857 0.2857 (   483 PWs)   bands (ev):

   -68.1599 -34.3227 -34.1622 -34.0831  12.0199  16.0503  16.5246  18.3841
    18.6662  19.1481  31.5539  37.3192

          k = 0.0000-0.4286 0.4286 (   480 PWs)   bands (ev):

   -68.1361 -34.4529 -34.2061 -34.0828  13.6215  15.6628  17.3668  18.7881
    19.2595  19.4449  26.4101  35.4295

          k =-0.1429-0.1429 0.2857 (   482 PWs)   bands (ev):

   -68.1681 -34.2699 -34.1367 -34.1003  11.4253  16.3005  16.3625  18.1587
    18.5558  19.1925  34.5775  35.5796

          k =-0.1429-0.2857 0.4286 (   485 PWs)   bands (ev):

   -68.1416 -34.3948 -34.2031 -34.1070  13.5199  15.8265  16.2448  18.6155
    19.1860  19.7866  28.9782  32.9857

          k =-0.1429 0.5714-0.4286 (   484 PWs)   bands (ev):

   -68.1296 -34.4467 -34.2370 -34.1079  14.1884  15.6454  16.8323  18.7622
    19.2982  21.0964  25.4794  32.1240

          k =-0.2857 0.7143-0.4286 (   480 PWs)   bands (ev):

   -68.1266 -34.3947 -34.2909 -34.1281  14.8758  15.6047  15.9879  18.7815
    19.1432  22.4607  26.9483  27.9195

          k = 0.0000 0.0000 0.2857 (   482 PWs)   bands (ev):

   -68.1769 -34.1741 -34.1327 -34.1327  10.7203  16.8128  16.8128  17.2638
    18.1544  19.3361  37.1986  38.9469

          k = 0.0000-0.1429 0.4286 (   477 PWs)   bands (ev):

   -68.1487 -34.3133 -34.1894 -34.1404  12.6699  16.5034  16.5478  17.8714
    18.2863  19.5773  32.1256  36.2127

          k = 0.0000-0.2857 0.5714 (   480 PWs)   bands (ev):

   -68.1262 -34.4342 -34.2347 -34.1365  14.1895  16.1765  16.3961  18.2511
    19.3823  20.5808  26.6851  34.2737

          k =-0.1429-0.1429 0.5714 (   473 PWs)   bands (ev):

   -68.1246 -34.3837 -34.2623 -34.1655  14.3634  15.8740  16.6193  17.9866
    18.9749  20.7387  29.8012  30.1927

          k =-0.1429 0.7143-0.2857 (   477 PWs)   bands (ev):

   -68.1140 -34.4118 -34.3083 -34.1666  15.0559  15.7736  16.2479  18.3473
    19.2016  23.2509  25.6965  29.1057

          k =-0.2857 0.2857 0.2857 (   483 PWs)   bands (ev):

   -68.1482 -34.3689 -34.1452 -34.1452  13.2615  15.7695  15.7695  19.0399
    19.0399  19.7302  32.0738  32.0738

          k = 0.5714-0.5714 0.2857 (   488 PWs)   bands (ev):

   -68.1325 -34.3977 -34.2320 -34.1523  14.6819  15.4497  15.9391  19.0749
    19.2781  21.8876  26.9470  30.6824

          k = 0.4286-0.5714 0.4286 (   484 PWs)   bands (ev):

   -68.1282 -34.3131 -34.3131 -34.1896  15.1729  15.5965  15.5965  19.2591
    19.2591  25.2947  25.2947  27.1125

          k = 0.0000 0.0000 0.5714 (   478 PWs)   bands (ev):

   -68.1240 -34.3123 -34.2497 -34.2497  14.0478  16.2115  17.4275  17.4275
    18.3228  20.2882  32.7714  32.7714

          k = 0.0000-0.1429 0.7143 (   478 PWs)   bands (ev):

   -68.1040 -34.3912 -34.2983 -34.2566  14.8983  15.3794  17.5325  17.9751
    19.2454  22.5831  27.6390  30.5133

          k =-0.1429 0.8571-0.1429 (   472 PWs)   bands (ev):

   -68.0945 -34.3683 -34.3683 -34.2686  15.0051  15.0051  17.5872  19.0213
    19.0213  26.0532  26.0532  27.1413

          k = 0.0000 0.0000 0.8571 (   486 PWs)   bands (ev):

   -68.0864 -34.3611 -34.3493 -34.3493  14.6603  14.7488  18.9351  18.9351
    19.2036  25.1085  27.8950  27.8950

     the Fermi energy is    17.2409 ev

!    total energy              =    -329.26240926 Ry
     Harris-Foulkes estimate   =    -329.26240925 Ry
     estimated scf accuracy    <          6.4E-09 Ry

     total all-electron energy =     -2545.558945 Ry

     The total energy is the sum of the following terms:

     one-electron contribution =    -114.03647222 Ry
     hartree contribution      =      66.97874936 Ry
     xc contribution           =     -34.79792644 Ry
     ewald contribution        =    -171.25804469 Ry
     one-center paw contrib.   =     -76.14981572 Ry
     smearing contrib. (-TS)   =       0.00110045 Ry

     total magnetization       =     2.20 Bohr mag/cell
     absolute magnetization    =     2.31 Bohr mag/cell

     convergence has been achieved in  18 iterations

     Forces acting on atoms (Ry/au):


     negative rho (up, down):  0.000E+00 1.923E-04
     atom    1 type  1   force =     0.00000000    0.00000000    0.00000000

     Total force =     0.000000     Total SCF correction =     0.000000


     entering subroutine stress ...


     negative rho (up, down):  0.000E+00 1.923E-04
          total   stress  (Ry/bohr**3)                   (kbar)     P= -169.85
  -0.00115463  -0.00000000   0.00000000       -169.85     -0.00      0.00
  -0.00000000  -0.00115463  -0.00000000         -0.00   -169.85     -0.00
   0.00000000  -0.00000000  -0.00115463          0.00     -0.00   -169.85


     Writing output data file Fe_bcc.save

     init_run     :      1.30s CPU      1.34s WALL (       1 calls)
     electrons    :     22.66s CPU     22.91s WALL (       1 calls)
     forces       :      0.10s CPU      0.10s WALL (       1 calls)
     stress       :      0.37s CPU      0.37s WALL (       1 calls)

     Called by init_run:
     wfcinit      :      0.29s CPU      0.29s WALL (       1 calls)
     potinit      :      0.52s CPU      0.53s WALL (       1 calls)

     Called by electrons:
     c_bands      :     11.23s CPU     11.24s WALL (      18 calls)
     sum_band     :      2.44s CPU      2.47s WALL (      18 calls)
     v_of_rho     :      0.40s CPU      0.41s WALL (      19 calls)
     newd         :      0.28s CPU      0.29s WALL (      19 calls)
     mix_rho      :      0.05s CPU      0.06s WALL (      18 calls)

     Called by c_bands:
     init_us_2    :      0.26s CPU      0.26s WALL (    1560 calls)
     cegterg      :     10.71s CPU     10.70s WALL (     720 calls)

     Called by *egterg:
     h_psi        :      9.18s CPU      9.25s WALL (    1998 calls)
     s_psi        :      0.25s CPU      0.20s WALL (    1998 calls)
     g_psi        :      0.05s CPU      0.05s WALL (    1238 calls)
     cdiaghg      :      0.51s CPU      0.51s WALL (    1958 calls)

     Called by h_psi:
     add_vuspsi   :      0.25s CPU      0.21s WALL (    1998 calls)

     General routines
     calbec       :      0.27s CPU      0.28s WALL (    2798 calls)
     fft          :      0.20s CPU      0.20s WALL (     623 calls)
     ffts         :      0.02s CPU      0.02s WALL (      74 calls)
     fftw         :      9.46s CPU      9.56s WALL (   48056 calls)
     interpolate  :      0.05s CPU      0.06s WALL (      74 calls)
     davcio       :      0.00s CPU      0.00s WALL (      40 calls)


     PAW routines
     PAW_pot      :      8.73s CPU      8.92s WALL (      19 calls)
     PAW_symme    :      0.02s CPU      0.02s WALL (      37 calls)

     PWSCF        :    24.82s CPU        25.16s WALL


   This run was terminated on:  10:15:42  11May2015            

=------------------------------------------------------------------------------=
   JOB DONE.
=------------------------------------------------------------------------------=
