
     Program PWSCF v.5.1.2 starts on 11May2015 at 10:23:11 

     This program is part of the open-source Quantum ESPRESSO suite
     for quantum simulation of materials; please cite
         "P. Giannozzi et al., J. Phys.:Condens. Matter 21 395502 (2009);
          URL http://www.quantum-espresso.org", 
     in publications or presentations arising from this work. More details at
     http://www.quantum-espresso.org/quote

     Serial version
     Reading input from Fe_bcc_5.41_9.pw.in

     Current dimensions of program PWSCF are:
     Max number of different atomic species (ntypx) = 10
     Max number of k-points (npk) =  40000
     Max angular momentum in pseudopotentials (lmaxx) =  3
               file Fe.pbe-spn-kjpaw_psl.0.2.1.UPF: wavefunction(s)  3D renormalized

     G-vector sticks info
     --------------------
     sticks:   dense  smooth     PW     G-vecs:    dense   smooth      PW
     Sum         411     333    103                 5281     3805     683

     Generating pointlists ...
     new r_m :   0.3572 (alat units)  1.9326 (a.u.) for type    1


     bravais-lattice index     =            3
     lattice parameter (alat)  =       5.4100  a.u.
     unit-cell volume          =      79.1702 (a.u.)^3
     number of atoms/cell      =            1
     number of atomic types    =            1
     number of electrons       =        16.00
     number of Kohn-Sham states=           12
     kinetic-energy cutoff     =      50.0000  Ry
     charge density cutoff     =     250.0000  Ry
     convergence threshold     =      1.0E-08
     mixing beta               =       0.7000
     number of iterations used =            8  plain     mixing
     Exchange-correlation      =  SLA  PW   PBX  PBC ( 1  4  3  4 0 0)

     celldm(1)=   5.410000  celldm(2)=   0.000000  celldm(3)=   0.000000
     celldm(4)=   0.000000  celldm(5)=   0.000000  celldm(6)=   0.000000

     crystal axes: (cart. coord. in units of alat)
               a(1) = (   0.500000   0.500000   0.500000 )  
               a(2) = (  -0.500000   0.500000   0.500000 )  
               a(3) = (  -0.500000  -0.500000   0.500000 )  

     reciprocal axes: (cart. coord. in units 2 pi/alat)
               b(1) = (  1.000000  0.000000  1.000000 )  
               b(2) = ( -1.000000  1.000000  0.000000 )  
               b(3) = (  0.000000 -1.000000  1.000000 )  


     PseudoPot. # 1 for Fe read from file:
     ./Fe.pbe-spn-kjpaw_psl.0.2.1.UPF
     MD5 check sum: a0a08122d52b112de96d1da1d7dd020f
     Pseudo is Projector augmented-wave + core cor, Zval = 16.0
     Generated using "atomic" code by A. Dal Corso  v.5.0.2 svn rev. 9415
     Shape of augmentation charge: PSQ
     Using radial grid of 1191 points,  6 beta functions with: 
                l(1) =   0
                l(2) =   0
                l(3) =   1
                l(4) =   1
                l(5) =   2
                l(6) =   2
     Q(r) pseudized with 0 coefficients 


     atomic species   valence    mass     pseudopotential
        Fe            16.00    55.85000     Fe( 1.00)

     Starting magnetic structure 
     atomic species   magnetization
        Fe           0.700

     48 Sym. Ops., with inversion, found



   Cartesian axes

     site n.     atom                  positions (alat units)
         1           Fe  tau(   1) = (   0.0000000   0.0000000   0.0000000  )

     number of k points=    70  Marzari-Vanderbilt smearing, width (Ry)=  0.0250
                       cart. coord. in units 2pi/alat
        k(    1) = (   0.0000000   0.0000000   0.0000000), wk =   0.0013717
        k(    2) = (   0.0000000  -0.1111111   0.1111111), wk =   0.0164609
        k(    3) = (   0.0000000  -0.2222222   0.2222222), wk =   0.0164609
        k(    4) = (   0.0000000  -0.3333333   0.3333333), wk =   0.0164609
        k(    5) = (   0.0000000  -0.4444444   0.4444444), wk =   0.0164609
        k(    6) = (  -0.1111111  -0.1111111   0.2222222), wk =   0.0329218
        k(    7) = (  -0.1111111  -0.2222222   0.3333333), wk =   0.0658436
        k(    8) = (  -0.1111111  -0.3333333   0.4444444), wk =   0.0658436
        k(    9) = (  -0.1111111   0.5555556  -0.4444444), wk =   0.0329218
        k(   10) = (  -0.2222222  -0.2222222   0.4444444), wk =   0.0329218
        k(   11) = (  -0.2222222   0.6666667  -0.4444444), wk =   0.0658436
        k(   12) = (  -0.3333333   0.6666667  -0.3333333), wk =   0.0109739
        k(   13) = (   0.0000000   0.0000000   0.2222222), wk =   0.0082305
        k(   14) = (   0.0000000  -0.1111111   0.3333333), wk =   0.0329218
        k(   15) = (   0.0000000  -0.2222222   0.4444444), wk =   0.0329218
        k(   16) = (   0.0000000  -0.3333333   0.5555556), wk =   0.0329218
        k(   17) = (  -0.1111111  -0.1111111   0.4444444), wk =   0.0329218
        k(   18) = (  -0.1111111  -0.2222222   0.5555556), wk =   0.0658436
        k(   19) = (  -0.1111111   0.6666667  -0.3333333), wk =   0.0329218
        k(   20) = (  -0.2222222   0.2222222   0.2222222), wk =   0.0109739
        k(   21) = (  -0.2222222   0.7777778  -0.3333333), wk =   0.0329218
        k(   22) = (  -0.3333333   0.3333333   0.2222222), wk =   0.0329218
        k(   23) = (   0.5555556  -0.5555556   0.2222222), wk =   0.0329218
        k(   24) = (   0.5555556  -0.6666667   0.3333333), wk =   0.0329218
        k(   25) = (   0.4444444  -0.5555556   0.3333333), wk =   0.0329218
        k(   26) = (   0.0000000   0.0000000   0.4444444), wk =   0.0082305
        k(   27) = (   0.0000000  -0.1111111   0.5555556), wk =   0.0329218
        k(   28) = (   0.0000000  -0.2222222   0.6666667), wk =   0.0329218
        k(   29) = (  -0.1111111  -0.1111111   0.6666667), wk =   0.0329218
        k(   30) = (  -0.1111111   0.7777778  -0.2222222), wk =   0.0329218
        k(   31) = (   0.5555556  -0.5555556   0.4444444), wk =   0.0109739
        k(   32) = (   0.0000000   0.0000000   0.6666667), wk =   0.0082305
        k(   33) = (   0.0000000  -0.1111111   0.7777778), wk =   0.0329218
        k(   34) = (  -0.1111111   0.8888889  -0.1111111), wk =   0.0109739
        k(   35) = (   0.0000000   0.0000000   0.8888889), wk =   0.0082305
        k(   36) = (   0.0000000   0.0000000   0.0000000), wk =   0.0013717
        k(   37) = (   0.0000000  -0.1111111   0.1111111), wk =   0.0164609
        k(   38) = (   0.0000000  -0.2222222   0.2222222), wk =   0.0164609
        k(   39) = (   0.0000000  -0.3333333   0.3333333), wk =   0.0164609
        k(   40) = (   0.0000000  -0.4444444   0.4444444), wk =   0.0164609
        k(   41) = (  -0.1111111  -0.1111111   0.2222222), wk =   0.0329218
        k(   42) = (  -0.1111111  -0.2222222   0.3333333), wk =   0.0658436
        k(   43) = (  -0.1111111  -0.3333333   0.4444444), wk =   0.0658436
        k(   44) = (  -0.1111111   0.5555556  -0.4444444), wk =   0.0329218
        k(   45) = (  -0.2222222  -0.2222222   0.4444444), wk =   0.0329218
        k(   46) = (  -0.2222222   0.6666667  -0.4444444), wk =   0.0658436
        k(   47) = (  -0.3333333   0.6666667  -0.3333333), wk =   0.0109739
        k(   48) = (   0.0000000   0.0000000   0.2222222), wk =   0.0082305
        k(   49) = (   0.0000000  -0.1111111   0.3333333), wk =   0.0329218
        k(   50) = (   0.0000000  -0.2222222   0.4444444), wk =   0.0329218
        k(   51) = (   0.0000000  -0.3333333   0.5555556), wk =   0.0329218
        k(   52) = (  -0.1111111  -0.1111111   0.4444444), wk =   0.0329218
        k(   53) = (  -0.1111111  -0.2222222   0.5555556), wk =   0.0658436
        k(   54) = (  -0.1111111   0.6666667  -0.3333333), wk =   0.0329218
        k(   55) = (  -0.2222222   0.2222222   0.2222222), wk =   0.0109739
        k(   56) = (  -0.2222222   0.7777778  -0.3333333), wk =   0.0329218
        k(   57) = (  -0.3333333   0.3333333   0.2222222), wk =   0.0329218
        k(   58) = (   0.5555556  -0.5555556   0.2222222), wk =   0.0329218
        k(   59) = (   0.5555556  -0.6666667   0.3333333), wk =   0.0329218
        k(   60) = (   0.4444444  -0.5555556   0.3333333), wk =   0.0329218
        k(   61) = (   0.0000000   0.0000000   0.4444444), wk =   0.0082305
        k(   62) = (   0.0000000  -0.1111111   0.5555556), wk =   0.0329218
        k(   63) = (   0.0000000  -0.2222222   0.6666667), wk =   0.0329218
        k(   64) = (  -0.1111111  -0.1111111   0.6666667), wk =   0.0329218
        k(   65) = (  -0.1111111   0.7777778  -0.2222222), wk =   0.0329218
        k(   66) = (   0.5555556  -0.5555556   0.4444444), wk =   0.0109739
        k(   67) = (   0.0000000   0.0000000   0.6666667), wk =   0.0082305
        k(   68) = (   0.0000000  -0.1111111   0.7777778), wk =   0.0329218
        k(   69) = (  -0.1111111   0.8888889  -0.1111111), wk =   0.0109739
        k(   70) = (   0.0000000   0.0000000   0.8888889), wk =   0.0082305

     Dense  grid:     5281 G-vectors     FFT dimensions: (  24,  24,  24)

     Smooth grid:     3805 G-vectors     FFT dimensions: (  24,  24,  24)

     Largest allocated arrays     est. size (Mb)     dimensions
        Kohn-Sham Wavefunctions         0.09 Mb     (     482,   12)
        NL pseudopotentials             0.13 Mb     (     482,   18)
        Each V/rho on FFT grid          0.42 Mb     (   13824,   2)
        Each G-vector array             0.04 Mb     (    5281)
        G-vector shells                 0.00 Mb     (      87)
     Largest temporary arrays     est. size (Mb)     dimensions
        Auxiliary wavefunctions         0.35 Mb     (     482,   48)
        Each subspace H/S matrix        0.04 Mb     (      48,   48)
        Each <psi_i|beta_j> matrix      0.00 Mb     (      18,   12)
        Arrays for rho mixing           1.69 Mb     (   13824,    8)

     Check: negative/imaginary core charge=   -0.000416    0.000000

     Initial potential from superposition of free atoms

     starting charge   15.99956, renormalised to   16.00000
     Starting wfc are   13 randomized atomic wfcs

     total cpu time spent up to now is        2.0 secs

     Self-consistent Calculation

     iteration #  1     ecut=    50.00 Ry     beta=0.70
     Davidson diagonalization with overlap
     ethr =  1.00E-02,  avg # of iterations =  3.3

     negative rho (up, down):  0.000E+00 3.405E-04

     Magnetic moment per site:
     atom:    1    charge:   14.2908    magn:    5.6857    constr:    0.0000

     total cpu time spent up to now is        4.4 secs

     total energy              =    -328.99161865 Ry
     Harris-Foulkes estimate   =    -328.06062992 Ry
     estimated scf accuracy    <       1.51416145 Ry

     total magnetization       =     3.82 Bohr mag/cell
     absolute magnetization    =     3.86 Bohr mag/cell

     iteration #  2     ecut=    50.00 Ry     beta=0.70
     Davidson diagonalization with overlap
     ethr =  9.46E-03,  avg # of iterations =  1.2

     negative rho (up, down):  0.000E+00 3.665E-04

     Magnetic moment per site:
     atom:    1    charge:   14.5168    magn:    3.4843    constr:    0.0000

     total cpu time spent up to now is        6.2 secs

     total energy              =    -329.16371610 Ry
     Harris-Foulkes estimate   =    -329.10274229 Ry
     estimated scf accuracy    <       0.34136060 Ry

     total magnetization       =     3.06 Bohr mag/cell
     absolute magnetization    =     3.19 Bohr mag/cell

     iteration #  3     ecut=    50.00 Ry     beta=0.70
     Davidson diagonalization with overlap
     ethr =  2.13E-03,  avg # of iterations =  2.1

     negative rho (up, down):  0.000E+00 3.722E-04

     Magnetic moment per site:
     atom:    1    charge:   14.4013    magn:    2.5037    constr:    0.0000

     total cpu time spent up to now is        8.3 secs

     total energy              =    -329.18351714 Ry
     Harris-Foulkes estimate   =    -329.34377980 Ry
     estimated scf accuracy    <       0.46371482 Ry

     total magnetization       =     2.51 Bohr mag/cell
     absolute magnetization    =     2.66 Bohr mag/cell

     iteration #  4     ecut=    50.00 Ry     beta=0.70
     Davidson diagonalization with overlap
     ethr =  2.13E-03,  avg # of iterations =  2.1

     negative rho (up, down):  0.000E+00 2.277E-04

     Magnetic moment per site:
     atom:    1    charge:   14.4333    magn:    2.3326    constr:    0.0000

     total cpu time spent up to now is       10.3 secs

     total energy              =    -329.25856567 Ry
     Harris-Foulkes estimate   =    -329.25772995 Ry
     estimated scf accuracy    <       0.00174277 Ry

     total magnetization       =     2.35 Bohr mag/cell
     absolute magnetization    =     2.52 Bohr mag/cell

     iteration #  5     ecut=    50.00 Ry     beta=0.70
     Davidson diagonalization with overlap
     ethr =  1.09E-05,  avg # of iterations =  3.4

     negative rho (up, down):  0.000E+00 2.164E-04

     Magnetic moment per site:
     atom:    1    charge:   14.4272    magn:    2.2892    constr:    0.0000

     total cpu time spent up to now is       12.8 secs

     total energy              =    -329.26180827 Ry
     Harris-Foulkes estimate   =    -329.26146195 Ry
     estimated scf accuracy    <       0.00051913 Ry

     total magnetization       =     2.22 Bohr mag/cell
     absolute magnetization    =     2.36 Bohr mag/cell

     iteration #  6     ecut=    50.00 Ry     beta=0.70
     Davidson diagonalization with overlap
     ethr =  3.24E-06,  avg # of iterations =  1.3

     negative rho (up, down):  0.000E+00 1.007E-04

     Magnetic moment per site:
     atom:    1    charge:   14.4162    magn:    2.0245    constr:    0.0000

     total cpu time spent up to now is       14.5 secs

     total energy              =    -329.26008626 Ry
     Harris-Foulkes estimate   =    -329.26192977 Ry
     estimated scf accuracy    <       0.00032925 Ry

     total magnetization       =     2.18 Bohr mag/cell
     absolute magnetization    =     2.32 Bohr mag/cell

     iteration #  7     ecut=    50.00 Ry     beta=0.70
     Davidson diagonalization with overlap
     ethr =  2.06E-06,  avg # of iterations =  2.6

     negative rho (up, down):  0.000E+00 1.670E-04

     Magnetic moment per site:
     atom:    1    charge:   14.4215    magn:    2.1829    constr:    0.0000

     total cpu time spent up to now is       16.8 secs

     total energy              =    -329.26223889 Ry
     Harris-Foulkes estimate   =    -329.26162421 Ry
     estimated scf accuracy    <       0.00044235 Ry

     total magnetization       =     2.06 Bohr mag/cell
     absolute magnetization    =     2.16 Bohr mag/cell

     iteration #  8     ecut=    50.00 Ry     beta=0.70
     Davidson diagonalization with overlap
     ethr =  2.06E-06,  avg # of iterations =  2.0

     negative rho (up, down):  0.000E+00 1.624E-04

     Magnetic moment per site:
     atom:    1    charge:   14.4227    magn:    2.1681    constr:    0.0000

     total cpu time spent up to now is       18.7 secs

     total energy              =    -329.26253619 Ry
     Harris-Foulkes estimate   =    -329.26250521 Ry
     estimated scf accuracy    <       0.00004214 Ry

     total magnetization       =     2.11 Bohr mag/cell
     absolute magnetization    =     2.23 Bohr mag/cell

     iteration #  9     ecut=    50.00 Ry     beta=0.70
     Davidson diagonalization with overlap
     ethr =  2.63E-07,  avg # of iterations =  2.0

     negative rho (up, down):  0.000E+00 1.591E-04

     Magnetic moment per site:
     atom:    1    charge:   14.4227    magn:    2.1514    constr:    0.0000

     total cpu time spent up to now is       20.6 secs

     total energy              =    -329.26255845 Ry
     Harris-Foulkes estimate   =    -329.26254444 Ry
     estimated scf accuracy    <       0.00001849 Ry

     total magnetization       =     2.10 Bohr mag/cell
     absolute magnetization    =     2.22 Bohr mag/cell

     iteration # 10     ecut=    50.00 Ry     beta=0.70
     Davidson diagonalization with overlap
     ethr =  1.16E-07,  avg # of iterations =  1.5

     negative rho (up, down):  0.000E+00 1.545E-04

     Magnetic moment per site:
     atom:    1    charge:   14.4221    magn:    2.1389    constr:    0.0000

     total cpu time spent up to now is       22.3 secs

     total energy              =    -329.26256750 Ry
     Harris-Foulkes estimate   =    -329.26256526 Ry
     estimated scf accuracy    <       0.00000501 Ry

     total magnetization       =     2.10 Bohr mag/cell
     absolute magnetization    =     2.21 Bohr mag/cell

     iteration # 11     ecut=    50.00 Ry     beta=0.70
     Davidson diagonalization with overlap
     ethr =  3.13E-08,  avg # of iterations =  1.6

     negative rho (up, down):  0.000E+00 1.549E-04

     Magnetic moment per site:
     atom:    1    charge:   14.4221    magn:    2.1395    constr:    0.0000

     total cpu time spent up to now is       24.3 secs

     total energy              =    -329.26257099 Ry
     Harris-Foulkes estimate   =    -329.26257029 Ry
     estimated scf accuracy    <       0.00000031 Ry

     total magnetization       =     2.09 Bohr mag/cell
     absolute magnetization    =     2.21 Bohr mag/cell

     iteration # 12     ecut=    50.00 Ry     beta=0.70
     Davidson diagonalization with overlap
     ethr =  1.96E-09,  avg # of iterations =  2.5

     negative rho (up, down):  0.000E+00 1.546E-04

     Magnetic moment per site:
     atom:    1    charge:   14.4221    magn:    2.1380    constr:    0.0000

     total cpu time spent up to now is       26.5 secs

     total energy              =    -329.26257130 Ry
     Harris-Foulkes estimate   =    -329.26257106 Ry
     estimated scf accuracy    <       0.00000059 Ry

     total magnetization       =     2.09 Bohr mag/cell
     absolute magnetization    =     2.21 Bohr mag/cell

     iteration # 13     ecut=    50.00 Ry     beta=0.70
     Davidson diagonalization with overlap
     ethr =  1.96E-09,  avg # of iterations =  1.1

     negative rho (up, down):  0.000E+00 1.547E-04

     Magnetic moment per site:
     atom:    1    charge:   14.4222    magn:    2.1375    constr:    0.0000

     total cpu time spent up to now is       28.3 secs

     total energy              =    -329.26257136 Ry
     Harris-Foulkes estimate   =    -329.26257135 Ry
     estimated scf accuracy    <       0.00000043 Ry

     total magnetization       =     2.09 Bohr mag/cell
     absolute magnetization    =     2.20 Bohr mag/cell

     iteration # 14     ecut=    50.00 Ry     beta=0.70
     Davidson diagonalization with overlap
     ethr =  1.96E-09,  avg # of iterations =  1.0

     negative rho (up, down):  0.000E+00 1.551E-04

     Magnetic moment per site:
     atom:    1    charge:   14.4222    magn:    2.1389    constr:    0.0000

     total cpu time spent up to now is       30.0 secs

     total energy              =    -329.26257068 Ry
     Harris-Foulkes estimate   =    -329.26257137 Ry
     estimated scf accuracy    <       0.00000050 Ry

     total magnetization       =     2.09 Bohr mag/cell
     absolute magnetization    =     2.20 Bohr mag/cell

     iteration # 15     ecut=    50.00 Ry     beta=0.70
     Davidson diagonalization with overlap
     ethr =  1.96E-09,  avg # of iterations =  1.0

     negative rho (up, down):  0.000E+00 1.547E-04

     Magnetic moment per site:
     atom:    1    charge:   14.4221    magn:    2.1379    constr:    0.0000

     total cpu time spent up to now is       31.8 secs

     total energy              =    -329.26257122 Ry
     Harris-Foulkes estimate   =    -329.26257072 Ry
     estimated scf accuracy    <       0.00000082 Ry

     total magnetization       =     2.09 Bohr mag/cell
     absolute magnetization    =     2.20 Bohr mag/cell

     iteration # 16     ecut=    50.00 Ry     beta=0.70
     Davidson diagonalization with overlap
     ethr =  1.96E-09,  avg # of iterations =  1.0

     negative rho (up, down):  0.000E+00 1.536E-04

     Magnetic moment per site:
     atom:    1    charge:   14.4221    magn:    2.1353    constr:    0.0000

     total cpu time spent up to now is       33.6 secs

     total energy              =    -329.26257173 Ry
     Harris-Foulkes estimate   =    -329.26257124 Ry
     estimated scf accuracy    <       0.00000051 Ry

     total magnetization       =     2.09 Bohr mag/cell
     absolute magnetization    =     2.20 Bohr mag/cell

     iteration # 17     ecut=    50.00 Ry     beta=0.70
     Davidson diagonalization with overlap
     ethr =  1.96E-09,  avg # of iterations =  1.6

     negative rho (up, down):  0.000E+00 1.530E-04

     Magnetic moment per site:
     atom:    1    charge:   14.4220    magn:    2.1338    constr:    0.0000

     total cpu time spent up to now is       35.4 secs

     total energy              =    -329.26257187 Ry
     Harris-Foulkes estimate   =    -329.26257190 Ry
     estimated scf accuracy    <       0.00000005 Ry

     total magnetization       =     2.09 Bohr mag/cell
     absolute magnetization    =     2.20 Bohr mag/cell

     iteration # 18     ecut=    50.00 Ry     beta=0.70
     Davidson diagonalization with overlap
     ethr =  3.08E-10,  avg # of iterations =  2.3

     negative rho (up, down):  0.000E+00 1.531E-04

     Magnetic moment per site:
     atom:    1    charge:   14.4220    magn:    2.1339    constr:    0.0000

     total cpu time spent up to now is       37.5 secs

     End of self-consistent calculation

 ------ SPIN UP ------------


          k = 0.0000 0.0000 0.0000 (   459 PWs)   bands (ev):

   -70.4467 -36.2686 -36.2686 -36.2686   9.2381  15.4572  15.4572  15.4572
    16.3697  16.3697  42.1563  42.1563

          k = 0.0000-0.1111 0.1111 (   471 PWs)   bands (ev):

   -70.4392 -36.3138 -36.2837 -36.2689   9.7343  15.3259  15.4306  15.7197
    16.2660  16.3811  39.2990  41.2907

          k = 0.0000-0.2222 0.2222 (   471 PWs)   bands (ev):

   -70.4188 -36.4243 -36.3212 -36.2691  11.0741  15.0035  15.2561  16.2586
    16.4206  16.4259  34.3139  39.0020

          k = 0.0000-0.3333 0.3333 (   474 PWs)   bands (ev):

   -70.3957 -36.5495 -36.3635 -36.2694  12.4601  14.6531  15.6219  16.4854
    16.4904  17.3197  29.2950  36.9194

          k = 0.0000-0.4444 0.4444 (   480 PWs)   bands (ev):

   -70.3808 -36.6299 -36.3911 -36.2697  12.7931  14.4330  16.4759  16.5398
    17.6138  17.9724  25.3755  35.7580

          k =-0.1111-0.1111 0.2222 (   476 PWs)   bands (ev):

   -70.4252 -36.3905 -36.3005 -36.2800  10.6626  15.1663  15.1981  16.1570
    16.2657  16.4552  36.6121  37.7946

          k =-0.1111-0.2222 0.3333 (   477 PWs)   bands (ev):

   -70.4034 -36.4985 -36.3453 -36.2848  12.1632  14.8033  15.0319  16.2483
    16.5621  17.2299  31.9591  35.3186

          k =-0.1111-0.3333 0.4444 (   474 PWs)   bands (ev):

   -70.3841 -36.5905 -36.3893 -36.2853  12.9971  14.5398  15.6082  16.4768
    16.8238  18.5165  27.2853  33.8713

          k =-0.1111 0.5556-0.4444 (   478 PWs)   bands (ev):

   -70.3767 -36.6260 -36.4076 -36.2858  13.0396  14.4440  16.0264  16.4958
    17.2604  19.7249  24.7164  33.3382

          k =-0.2222-0.2222 0.4444 (   475 PWs)   bands (ev):

   -70.3855 -36.5591 -36.3943 -36.3025  13.3497  14.4477  14.9908  16.3456
    16.7387  18.7662  29.8854  30.6462

          k =-0.2222 0.6667-0.4444 (   474 PWs)   bands (ev):

   -70.3739 -36.5832 -36.4470 -36.3088  13.6528  14.4355  15.1224  16.5310
    16.9497  21.0545  25.9243  29.3299

          k =-0.3333 0.6667-0.3333 (   475 PWs)   bands (ev):

   -70.3698 -36.5259 -36.5259 -36.3167  14.0988  14.5490  14.5490  16.7847
    16.7847  24.2184  24.2184  26.6820

          k = 0.0000 0.0000 0.2222 (   470 PWs)   bands (ev):

   -70.4314 -36.3250 -36.2987 -36.2987  10.2109  15.4703  15.4703  15.7216
    15.9513  16.5336  38.4943  40.4518

          k = 0.0000-0.1111 0.3333 (   469 PWs)   bands (ev):

   -70.4116 -36.4227 -36.3369 -36.3047  11.4876  15.2136  15.2515  15.9029
    16.3634  16.7046  34.6302  37.9570

          k = 0.0000-0.2222 0.4444 (   472 PWs)   bands (ev):

   -70.3891 -36.5416 -36.3801 -36.3028  12.7800  14.9365  14.9947  16.2881
    17.2470  17.2692  29.6261  36.3683

          k = 0.0000-0.3333 0.5556 (   472 PWs)   bands (ev):

   -70.3744 -36.6182 -36.4077 -36.3011  13.0594  14.7352  15.3469  16.3474
    17.9385  19.0314  25.5410  35.1335

          k =-0.1111-0.1111 0.4444 (   466 PWs)   bands (ev):

   -70.3909 -36.5000 -36.3812 -36.3260  12.7387  14.6810  15.3335  15.9879
    16.8493  17.4231  32.3399  33.1526

          k =-0.1111-0.2222 0.5556 (   472 PWs)   bands (ev):

   -70.3731 -36.5749 -36.4297 -36.3287  13.4508  14.4451  15.1424  16.3120
    17.3376  19.3091  27.8548  31.3283

          k =-0.1111 0.6667-0.3333 (   470 PWs)   bands (ev):

   -70.3659 -36.6044 -36.4495 -36.3280  13.4443  14.7297  14.8744  16.3877
    17.6763  21.2832  24.8979  30.7709

          k =-0.2222 0.2222 0.2222 (   477 PWs)   bands (ev):

   -70.4090 -36.4817 -36.3045 -36.3045  11.9076  14.8080  14.8080  16.3838
    16.3838  17.2641  34.4414  34.4414

          k =-0.2222 0.7778-0.3333 (   471 PWs)   bands (ev):

   -70.3626 -36.5682 -36.5002 -36.3359  14.0519  14.0580  14.8175  16.7581
    17.2670  22.3204  26.1955  27.4614

          k =-0.3333 0.3333 0.2222 (   478 PWs)   bands (ev):

   -70.3905 -36.5560 -36.3614 -36.3079  13.2626  14.5094  14.7807  16.4610
    16.5076  18.6670  29.8751  32.8433

          k = 0.5556-0.5556 0.2222 (   476 PWs)   bands (ev):

   -70.3783 -36.5915 -36.4106 -36.3104  13.4548  14.3534  15.7115  16.5564
    16.5582  20.5656  25.7460  31.9851

          k = 0.5556-0.6667 0.3333 (   479 PWs)   bands (ev):

   -70.3791 -36.5637 -36.4084 -36.3390  14.0109  14.3792  14.8132  16.5413
    16.5941  20.8118  28.1599  28.9358

          k = 0.4444-0.5556 0.3333 (   482 PWs)   bands (ev):

   -70.3748 -36.5426 -36.4561 -36.3466  14.0027  14.3985  15.0745  16.5997
    16.6231  23.1231  25.1888  28.1679

          k = 0.0000 0.0000 0.4444 (   470 PWs)   bands (ev):

   -70.3934 -36.4365 -36.3764 -36.3764  12.4934  14.8806  15.7357  15.7357
    16.4036  17.1949  35.2170  35.5645

          k = 0.0000-0.1111 0.5556 (   472 PWs)   bands (ev):

   -70.3727 -36.5225 -36.4212 -36.3865  13.3428  14.2704  15.7013  16.1141
    17.1571  18.4582  30.5740  33.3465

          k = 0.0000-0.2222 0.6667 (   466 PWs)   bands (ev):

   -70.3589 -36.5890 -36.4499 -36.3811  13.4446  14.1432  15.5737  16.2552
    17.8533  21.0399  26.1532  32.0307

          k =-0.1111-0.1111 0.6667 (   471 PWs)   bands (ev):

   -70.3565 -36.5569 -36.4773 -36.4026  13.6060  13.7612  15.7496  16.6226
    17.4993  20.8616  28.7589  29.3078

          k =-0.1111 0.7778-0.2222 (   465 PWs)   bands (ev):

   -70.3498 -36.5710 -36.5057 -36.4011  13.5103  13.7226  15.6541  16.9021
    17.6899  23.6163  25.4623  28.4855

          k = 0.5556-0.5556 0.4444 (   477 PWs)   bands (ev):

   -70.3748 -36.5112 -36.4180 -36.4180  14.4112  14.4112  14.7104  16.5806
    16.5806  23.6455  27.2621  27.2621

          k = 0.0000 0.0000 0.6667 (   458 PWs)   bands (ev):

   -70.3535 -36.5124 -36.4671 -36.4671  13.4094  13.6721  16.5521  16.5521
    17.2003  20.3172  30.9202  30.9202

          k = 0.0000-0.1111 0.7778 (   472 PWs)   bands (ev):

   -70.3419 -36.5566 -36.4986 -36.4726  13.2415  13.3162  16.7106  16.9248
    17.7585  23.2013  27.2857  29.4007

          k =-0.1111 0.8889-0.1111 (   478 PWs)   bands (ev):

   -70.3363 -36.5419 -36.5419 -36.4808  13.1065  13.1065  16.8132  17.6301
    17.6301  26.1527  26.1527  27.1089

          k = 0.0000 0.0000 0.8889 (   482 PWs)   bands (ev):

   -70.3309 -36.5374 -36.5303 -36.5303  12.9010  12.9031  17.6009  17.6009
    17.7317  25.6695  27.7484  27.7484

 ------ SPIN DOWN ----------


          k = 0.0000 0.0000 0.0000 (   459 PWs)   bands (ev):

   -67.9244 -33.7902 -33.7902 -33.7902   9.4042  17.0556  17.0556  17.0556
    19.3857  19.3857  41.9131  41.9131

          k = 0.0000-0.1111 0.1111 (   471 PWs)   bands (ev):

   -67.9161 -33.8401 -33.8067 -33.7906   9.9038  16.9016  17.0232  17.3384
    19.2235  19.3983  39.4589  41.2379

          k = 0.0000-0.2222 0.2222 (   471 PWs)   bands (ev):

   -67.8940 -33.9627 -33.8477 -33.7908  11.2858  16.5263  16.8644  18.1038
    19.0075  19.4482  34.8452  39.1265

          k = 0.0000-0.3333 0.3333 (   474 PWs)   bands (ev):

   -67.8690 -34.1010 -33.8940 -33.7911  13.0208  16.1222  16.8809  19.0268
    19.0848  19.5386  30.0947  37.0313

          k = 0.0000-0.4444 0.4444 (   480 PWs)   bands (ev):

   -67.8526 -34.1899 -33.9242 -33.7914  13.9235  15.8702  17.8638  19.1224
    19.6189  19.8126  26.5152  35.8286

          k =-0.1111-0.1111 0.2222 (   476 PWs)   bands (ev):

   -67.9009 -33.9249 -33.8251 -33.8027  10.8492  16.7122  16.8020  17.9148
    18.9935  19.4686  36.9841  38.1186

          k =-0.1111-0.2222 0.3333 (   477 PWs)   bands (ev):

   -67.8773 -34.0446 -33.8743 -33.8078  12.4852  16.3243  16.5669  18.8668
    18.9071  19.5945  32.6041  35.7254

          k =-0.1111-0.3333 0.4444 (   474 PWs)   bands (ev):

   -67.8563 -34.1464 -33.9227 -33.8086  13.9193  15.9880  16.8381  19.0127
    19.5679  20.1659  28.1989  34.2747

          k =-0.1111 0.5556-0.4444 (   478 PWs)   bands (ev):

   -67.8482 -34.1856 -33.9426 -33.8091  14.2678  15.8660  17.4221  19.0979
    19.6651  20.9501  25.9246  33.7312

          k =-0.2222-0.2222 0.4444 (   475 PWs)   bands (ev):

   -67.8579 -34.1114 -33.9285 -33.8274  14.0256  16.0570  16.2875  18.8942
    19.5192  20.4438  30.6339  31.2397

          k =-0.2222 0.6667-0.4444 (   474 PWs)   bands (ev):

   -67.8452 -34.1381 -33.9867 -33.8343  14.8671  15.8939  16.4595  19.0720
    19.5275  22.3072  26.8896  29.9687

          k =-0.3333 0.6667-0.3333 (   475 PWs)   bands (ev):

   -67.8409 -34.0743 -34.0743 -33.8427  15.3750  16.0070  16.0070  19.3031
    19.3031  25.2073  25.2073  27.4825

          k = 0.0000 0.0000 0.2222 (   470 PWs)   bands (ev):

   -67.9076 -33.8531 -33.8232 -33.8232  10.3885  17.0428  17.0428  17.3436
    18.8219  19.5842  38.7055  40.6431

          k = 0.0000-0.1111 0.3333 (   469 PWs)   bands (ev):

   -67.8862 -33.9610 -33.8651 -33.8299  11.7282  16.7860  16.9557  18.0347
    18.4089  19.7298  35.1791  38.2768

          k = 0.0000-0.2222 0.4444 (   472 PWs)   bands (ev):

   -67.8619 -34.0922 -33.9123 -33.8279  13.4032  16.4232  16.7368  18.5412
    19.0277  19.9357  30.4154  36.5746

          k = 0.0000-0.3333 0.5556 (   472 PWs)   bands (ev):

   -67.8459 -34.1769 -33.9427 -33.8261  14.2891  16.1926  17.0503  18.7587
    19.7750  20.6885  26.6405  35.6239

          k =-0.1111-0.1111 0.4444 (   466 PWs)   bands (ev):

   -67.8639 -34.0464 -33.9138 -33.8534  13.2113  16.5974  16.8119  18.1671
    18.7732  20.0092  33.0518  33.6833

          k =-0.1111-0.2222 0.5556 (   472 PWs)   bands (ev):

   -67.8445 -34.1287 -33.9673 -33.8563  14.5411  16.2228  16.6613  18.4685
    19.4139  21.0557  28.7252  31.9419

          k =-0.1111 0.6667-0.3333 (   470 PWs)   bands (ev):

   -67.8367 -34.1612 -33.9891 -33.8556  14.8962  16.3661  16.4692  18.6198
    19.6491  22.5207  26.0284  31.3763

          k =-0.2222 0.2222 0.2222 (   477 PWs)   bands (ev):

   -67.8833 -34.0260 -33.8295 -33.8295  12.1397  16.3404  16.3404  18.9258
    19.2884  19.2884  34.8858  34.8858

          k =-0.2222 0.7778-0.3333 (   471 PWs)   bands (ev):

   -67.8331 -34.1210 -34.0454 -33.8641  15.5066  15.8535  16.3639  18.8249
    19.3385  23.5512  27.1736  28.1836

          k =-0.3333 0.3333 0.2222 (   478 PWs)   bands (ev):

   -67.8632 -34.1079 -33.8923 -33.8335  13.7996  15.9428  16.1286  19.2565
    19.5154  20.2271  30.5658  33.2827

          k = 0.5556-0.5556 0.2222 (   476 PWs)   bands (ev):

   -67.8501 -34.1474 -33.9464 -33.8363  14.6035  15.7247  16.6613  19.3129
    19.6350  21.7369  26.7315  32.3999

          k = 0.5556-0.6667 0.3333 (   479 PWs)   bands (ev):

   -67.8509 -34.1164 -33.9444 -33.8678  15.0197  15.7572  15.9077  19.4016
    19.6022  22.0748  28.8834  29.5779

          k = 0.4444-0.5556 0.3333 (   482 PWs)   bands (ev):

   -67.8461 -34.0932 -33.9971 -33.8760  15.2242  15.6942  16.1872  19.4738
    19.6199  24.0324  26.1353  28.8257

          k = 0.0000 0.0000 0.4444 (   470 PWs)   bands (ev):

   -67.8665 -33.9767 -33.9085 -33.9085  12.9040  17.2800  17.2800  17.4087
    18.0889  20.0262  35.8877  36.0686

          k = 0.0000-0.1111 0.5556 (   472 PWs)   bands (ev):

   -67.8441 -34.0709 -33.9577 -33.9200  14.2816  16.4542  17.2385  17.8952
    18.9045  20.6207  31.3034  33.8559

          k = 0.0000-0.2222 0.6667 (   466 PWs)   bands (ev):

   -67.8292 -34.1440 -33.9893 -33.9143  15.0393  16.0353  17.0953  18.1980
    19.6807  22.3919  27.1106  32.5027

          k =-0.1111-0.1111 0.6667 (   471 PWs)   bands (ev):

   -67.8264 -34.1085 -34.0197 -33.9376  15.1249  15.8395  17.3203  18.3587
    19.3398  22.2777  29.5750  29.9032

          k =-0.1111 0.7778-0.2222 (   465 PWs)   bands (ev):

   -67.8192 -34.1235 -34.0512 -33.9361  15.4126  15.6193  17.1566  18.7012
    19.5341  24.6516  26.3972  29.1292

          k = 0.5556-0.5556 0.4444 (   477 PWs)   bands (ev):

   -67.8462 -34.0586 -33.9551 -33.9551  15.6434  15.6434  15.7539  19.6468
    19.6468  24.5595  27.9491  27.9491

          k = 0.0000 0.0000 0.6667 (   458 PWs)   bands (ev):

   -67.8233 -34.0601 -34.0086 -34.0086  14.9226  15.8713  18.1514  18.1514
    18.9641  21.8006  31.3927  31.3927

          k = 0.0000-0.1111 0.7778 (   472 PWs)   bands (ev):

   -67.8105 -34.1074 -34.0429 -34.0148  15.1323  15.3417  18.3489  18.5974
    19.5763  24.1635  27.9489  29.8084

          k =-0.1111 0.8889-0.1111 (   478 PWs)   bands (ev):

   -67.8044 -34.0908 -34.0908 -34.0234  15.0945  15.0945  18.4442  19.4213
    19.4213  26.8269  26.8269  27.5974

          k = 0.0000 0.0000 0.8889 (   482 PWs)   bands (ev):

   -67.7986 -34.0858 -34.0777 -34.0777  14.8729  14.9209  19.3755  19.3755
    19.5507  26.2037  28.0453  28.0453

     the Fermi energy is    17.5326 ev

!    total energy              =    -329.26257199 Ry
     Harris-Foulkes estimate   =    -329.26257194 Ry
     estimated scf accuracy    <          2.5E-09 Ry

     total all-electron energy =     -2545.559107 Ry

     The total energy is the sum of the following terms:

     one-electron contribution =    -112.53199034 Ry
     hartree contribution      =      66.42734882 Ry
     xc contribution           =     -34.80151341 Ry
     ewald contribution        =    -172.20771962 Ry
     one-center paw contrib.   =     -76.15026630 Ry
     smearing contrib. (-TS)   =       0.00156887 Ry

     total magnetization       =     2.09 Bohr mag/cell
     absolute magnetization    =     2.20 Bohr mag/cell

     convergence has been achieved in  18 iterations

     Forces acting on atoms (Ry/au):


     negative rho (up, down):  0.000E+00 1.531E-04
     atom    1 type  1   force =     0.00000000    0.00000000    0.00000000

     Total force =     0.000000     Total SCF correction =     0.000000


     entering subroutine stress ...


     negative rho (up, down):  0.000E+00 1.531E-04
          total   stress  (Ry/bohr**3)                   (kbar)     P= -151.15
  -0.00102748  -0.00000000   0.00000000       -151.15     -0.00      0.00
  -0.00000000  -0.00102748  -0.00000000         -0.00   -151.15     -0.00
   0.00000000  -0.00000000  -0.00102748          0.00     -0.00   -151.15


     Writing output data file Fe_bcc.save

     init_run     :      1.63s CPU      1.67s WALL (       1 calls)
     electrons    :     34.91s CPU     35.49s WALL (       1 calls)
     forces       :      0.12s CPU      0.12s WALL (       1 calls)
     stress       :      0.47s CPU      0.48s WALL (       1 calls)

     Called by init_run:
     wfcinit      :      0.55s CPU      0.54s WALL (       1 calls)
     potinit      :      0.56s CPU      0.58s WALL (       1 calls)

     Called by electrons:
     c_bands      :     21.31s CPU     21.48s WALL (      18 calls)
     sum_band     :      4.10s CPU      4.23s WALL (      18 calls)
     v_of_rho     :      0.43s CPU      0.45s WALL (      19 calls)
     newd         :      0.29s CPU      0.30s WALL (      19 calls)
     mix_rho      :      0.06s CPU      0.06s WALL (      18 calls)

     Called by c_bands:
     init_us_2    :      0.47s CPU      0.48s WALL (    2730 calls)
     cegterg      :     20.38s CPU     20.52s WALL (    1260 calls)

     Called by *egterg:
     h_psi        :     17.44s CPU     17.69s WALL (    3678 calls)
     s_psi        :      0.47s CPU      0.38s WALL (    3678 calls)
     g_psi        :      0.09s CPU      0.10s WALL (    2348 calls)
     cdiaghg      :      1.02s CPU      1.04s WALL (    3608 calls)

     Called by h_psi:
     add_vuspsi   :      0.49s CPU      0.42s WALL (    3678 calls)

     General routines
     calbec       :      0.52s CPU      0.53s WALL (    5078 calls)
     fft          :      0.22s CPU      0.22s WALL (     623 calls)
     ffts         :      0.03s CPU      0.03s WALL (      74 calls)
     fftw         :     17.89s CPU     18.22s WALL (   85912 calls)
     interpolate  :      0.06s CPU      0.06s WALL (      74 calls)
     davcio       :      0.00s CPU      0.00s WALL (      70 calls)


     PAW routines
     PAW_pot      :      9.25s CPU      9.51s WALL (      19 calls)
     PAW_symme    :      0.02s CPU      0.02s WALL (      37 calls)

     PWSCF        :    37.59s CPU        38.30s WALL


   This run was terminated on:  10:23:50  11May2015            

=------------------------------------------------------------------------------=
   JOB DONE.
=------------------------------------------------------------------------------=
