
     Program PWSCF v.5.1.2 starts on 11May2015 at 10:33:19 

     This program is part of the open-source Quantum ESPRESSO suite
     for quantum simulation of materials; please cite
         "P. Giannozzi et al., J. Phys.:Condens. Matter 21 395502 (2009);
          URL http://www.quantum-espresso.org", 
     in publications or presentations arising from this work. More details at
     http://www.quantum-espresso.org/quote

     Serial version
     Reading input from Fe_bcc_5.4_11.pw.in

     Current dimensions of program PWSCF are:
     Max number of different atomic species (ntypx) = 10
     Max number of k-points (npk) =  40000
     Max angular momentum in pseudopotentials (lmaxx) =  3
               file Fe.pbe-spn-kjpaw_psl.0.2.1.UPF: wavefunction(s)  3D renormalized

     G-vector sticks info
     --------------------
     sticks:   dense  smooth     PW     G-vecs:    dense   smooth      PW
     Sum         411     333    103                 5281     3781     683

     Generating pointlists ...
     new r_m :   0.3572 (alat units)  1.9291 (a.u.) for type    1


     bravais-lattice index     =            3
     lattice parameter (alat)  =       5.4000  a.u.
     unit-cell volume          =      78.7320 (a.u.)^3
     number of atoms/cell      =            1
     number of atomic types    =            1
     number of electrons       =        16.00
     number of Kohn-Sham states=           12
     kinetic-energy cutoff     =      50.0000  Ry
     charge density cutoff     =     250.0000  Ry
     convergence threshold     =      1.0E-08
     mixing beta               =       0.7000
     number of iterations used =            8  plain     mixing
     Exchange-correlation      =  SLA  PW   PBX  PBC ( 1  4  3  4 0 0)

     celldm(1)=   5.400000  celldm(2)=   0.000000  celldm(3)=   0.000000
     celldm(4)=   0.000000  celldm(5)=   0.000000  celldm(6)=   0.000000

     crystal axes: (cart. coord. in units of alat)
               a(1) = (   0.500000   0.500000   0.500000 )  
               a(2) = (  -0.500000   0.500000   0.500000 )  
               a(3) = (  -0.500000  -0.500000   0.500000 )  

     reciprocal axes: (cart. coord. in units 2 pi/alat)
               b(1) = (  1.000000  0.000000  1.000000 )  
               b(2) = ( -1.000000  1.000000  0.000000 )  
               b(3) = (  0.000000 -1.000000  1.000000 )  


     PseudoPot. # 1 for Fe read from file:
     ./Fe.pbe-spn-kjpaw_psl.0.2.1.UPF
     MD5 check sum: a0a08122d52b112de96d1da1d7dd020f
     Pseudo is Projector augmented-wave + core cor, Zval = 16.0
     Generated using "atomic" code by A. Dal Corso  v.5.0.2 svn rev. 9415
     Shape of augmentation charge: PSQ
     Using radial grid of 1191 points,  6 beta functions with: 
                l(1) =   0
                l(2) =   0
                l(3) =   1
                l(4) =   1
                l(5) =   2
                l(6) =   2
     Q(r) pseudized with 0 coefficients 


     atomic species   valence    mass     pseudopotential
        Fe            16.00    55.85000     Fe( 1.00)

     Starting magnetic structure 
     atomic species   magnetization
        Fe           0.700

     48 Sym. Ops., with inversion, found



   Cartesian axes

     site n.     atom                  positions (alat units)
         1           Fe  tau(   1) = (   0.0000000   0.0000000   0.0000000  )

     number of k points=   112  Marzari-Vanderbilt smearing, width (Ry)=  0.0250

     Number of k-points >= 100: set verbosity='high' to print them.

     Dense  grid:     5281 G-vectors     FFT dimensions: (  24,  24,  24)

     Smooth grid:     3781 G-vectors     FFT dimensions: (  24,  24,  24)

     Largest allocated arrays     est. size (Mb)     dimensions
        Kohn-Sham Wavefunctions         0.09 Mb     (     478,   12)
        NL pseudopotentials             0.13 Mb     (     478,   18)
        Each V/rho on FFT grid          0.42 Mb     (   13824,   2)
        Each G-vector array             0.04 Mb     (    5281)
        G-vector shells                 0.00 Mb     (      87)
     Largest temporary arrays     est. size (Mb)     dimensions
        Auxiliary wavefunctions         0.35 Mb     (     478,   48)
        Each subspace H/S matrix        0.04 Mb     (      48,   48)
        Each <psi_i|beta_j> matrix      0.00 Mb     (      18,   12)
        Arrays for rho mixing           1.69 Mb     (   13824,    8)

     Check: negative/imaginary core charge=   -0.000421    0.000000

     Initial potential from superposition of free atoms

     starting charge   15.99956, renormalised to   16.00000
     Starting wfc are   13 randomized atomic wfcs

     total cpu time spent up to now is        2.5 secs

     Self-consistent Calculation

     iteration #  1     ecut=    50.00 Ry     beta=0.70
     Davidson diagonalization with overlap
     ethr =  1.00E-02,  avg # of iterations =  3.3

     negative rho (up, down):  0.000E+00 3.431E-04

     Magnetic moment per site:
     atom:    1    charge:   14.2835    magn:    5.7098    constr:    0.0000

     total cpu time spent up to now is       11.4 secs

     total energy              =    -328.97953924 Ry
     Harris-Foulkes estimate   =    -328.05948514 Ry
     estimated scf accuracy    <       1.50457719 Ry

     total magnetization       =     3.88 Bohr mag/cell
     absolute magnetization    =     3.90 Bohr mag/cell

     iteration #  2     ecut=    50.00 Ry     beta=0.70
     Davidson diagonalization with overlap
     ethr =  9.40E-03,  avg # of iterations =  1.2

     negative rho (up, down):  0.000E+00 3.601E-04

     Magnetic moment per site:
     atom:    1    charge:   14.5143    magn:    3.4950    constr:    0.0000

     total cpu time spent up to now is       16.5 secs

     total energy              =    -329.16103971 Ry
     Harris-Foulkes estimate   =    -329.09986113 Ry
     estimated scf accuracy    <       0.35100058 Ry

     total magnetization       =     3.05 Bohr mag/cell
     absolute magnetization    =     3.18 Bohr mag/cell

     iteration #  3     ecut=    50.00 Ry     beta=0.70
     Davidson diagonalization with overlap
     ethr =  2.19E-03,  avg # of iterations =  2.1

     negative rho (up, down):  0.000E+00 3.648E-04

     Magnetic moment per site:
     atom:    1    charge:   14.3980    magn:    2.4780    constr:    0.0000

     total cpu time spent up to now is       21.8 secs

     total energy              =    -329.18133072 Ry
     Harris-Foulkes estimate   =    -329.34483162 Ry
     estimated scf accuracy    <       0.47226300 Ry

     total magnetization       =     2.52 Bohr mag/cell
     absolute magnetization    =     2.66 Bohr mag/cell

     iteration #  4     ecut=    50.00 Ry     beta=0.70
     Davidson diagonalization with overlap
     ethr =  2.19E-03,  avg # of iterations =  2.0

     negative rho (up, down):  0.000E+00 2.095E-04

     Magnetic moment per site:
     atom:    1    charge:   14.4270    magn:    2.2552    constr:    0.0000

     total cpu time spent up to now is       28.2 secs

     total energy              =    -329.25848464 Ry
     Harris-Foulkes estimate   =    -329.25757157 Ry
     estimated scf accuracy    <       0.00214849 Ry

     total magnetization       =     2.29 Bohr mag/cell
     absolute magnetization    =     2.47 Bohr mag/cell

     iteration #  5     ecut=    50.00 Ry     beta=0.70
     Davidson diagonalization with overlap
     ethr =  1.34E-05,  avg # of iterations =  3.4

     negative rho (up, down):  0.000E+00 1.955E-04

     Magnetic moment per site:
     atom:    1    charge:   14.4166    magn:    2.2380    constr:    0.0000

     total cpu time spent up to now is       35.9 secs

     total energy              =    -329.26197272 Ry
     Harris-Foulkes estimate   =    -329.26174856 Ry
     estimated scf accuracy    <       0.00051840 Ry

     total magnetization       =     2.17 Bohr mag/cell
     absolute magnetization    =     2.32 Bohr mag/cell

     iteration #  6     ecut=    50.00 Ry     beta=0.70
     Davidson diagonalization with overlap
     ethr =  3.24E-06,  avg # of iterations =  1.9

     negative rho (up, down):  0.000E+00 1.413E-04

     Magnetic moment per site:
     atom:    1    charge:   14.4126    magn:    2.1634    constr:    0.0000

     total cpu time spent up to now is       41.5 secs

     total energy              =    -329.26205173 Ry
     Harris-Foulkes estimate   =    -329.26217533 Ry
     estimated scf accuracy    <       0.00029682 Ry

     total magnetization       =     2.16 Bohr mag/cell
     absolute magnetization    =     2.30 Bohr mag/cell

     iteration #  7     ecut=    50.00 Ry     beta=0.70
     Davidson diagonalization with overlap
     ethr =  1.86E-06,  avg # of iterations =  1.6

     negative rho (up, down):  0.000E+00 1.709E-04

     Magnetic moment per site:
     atom:    1    charge:   14.4170    magn:    2.2094    constr:    0.0000

     total cpu time spent up to now is       46.6 secs

     total energy              =    -329.26236436 Ry
     Harris-Foulkes estimate   =    -329.26227540 Ry
     estimated scf accuracy    <       0.00006041 Ry

     total magnetization       =     2.13 Bohr mag/cell
     absolute magnetization    =     2.25 Bohr mag/cell

     iteration #  8     ecut=    50.00 Ry     beta=0.70
     Davidson diagonalization with overlap
     ethr =  3.78E-07,  avg # of iterations =  2.0

     negative rho (up, down):  0.000E+00 1.679E-04

     Magnetic moment per site:
     atom:    1    charge:   14.4172    magn:    2.1994    constr:    0.0000

     total cpu time spent up to now is       51.7 secs

     total energy              =    -329.26240030 Ry
     Harris-Foulkes estimate   =    -329.26238993 Ry
     estimated scf accuracy    <       0.00001756 Ry

     total magnetization       =     2.15 Bohr mag/cell
     absolute magnetization    =     2.27 Bohr mag/cell

     iteration #  9     ecut=    50.00 Ry     beta=0.70
     Davidson diagonalization with overlap
     ethr =  1.10E-07,  avg # of iterations =  1.8

     negative rho (up, down):  0.000E+00 1.648E-04

     Magnetic moment per site:
     atom:    1    charge:   14.4165    magn:    2.1907    constr:    0.0000

     total cpu time spent up to now is       54.7 secs

     total energy              =    -329.26240696 Ry
     Harris-Foulkes estimate   =    -329.26240528 Ry
     estimated scf accuracy    <       0.00000460 Ry

     total magnetization       =     2.14 Bohr mag/cell
     absolute magnetization    =     2.26 Bohr mag/cell

     iteration # 10     ecut=    50.00 Ry     beta=0.70
     Davidson diagonalization with overlap
     ethr =  2.88E-08,  avg # of iterations =  1.8

     negative rho (up, down):  0.000E+00 1.635E-04

     Magnetic moment per site:
     atom:    1    charge:   14.4164    magn:    2.1879    constr:    0.0000

     total cpu time spent up to now is       57.3 secs

     total energy              =    -329.26240919 Ry
     Harris-Foulkes estimate   =    -329.26240867 Ry
     estimated scf accuracy    <       0.00000027 Ry

     total magnetization       =     2.14 Bohr mag/cell
     absolute magnetization    =     2.26 Bohr mag/cell

     iteration # 11     ecut=    50.00 Ry     beta=0.70
     Davidson diagonalization with overlap
     ethr =  1.67E-09,  avg # of iterations =  2.7

     negative rho (up, down):  0.000E+00 1.633E-04

     Magnetic moment per site:
     atom:    1    charge:   14.4164    magn:    2.1872    constr:    0.0000

     total cpu time spent up to now is       60.1 secs

     total energy              =    -329.26240966 Ry
     Harris-Foulkes estimate   =    -329.26240950 Ry
     estimated scf accuracy    <       0.00000001 Ry

     total magnetization       =     2.14 Bohr mag/cell
     absolute magnetization    =     2.26 Bohr mag/cell

     iteration # 12     ecut=    50.00 Ry     beta=0.70
     Davidson diagonalization with overlap
     ethr =  8.58E-11,  avg # of iterations =  2.6

     negative rho (up, down):  0.000E+00 1.634E-04

     Magnetic moment per site:
     atom:    1    charge:   14.4164    magn:    2.1872    constr:    0.0000

     total cpu time spent up to now is       63.1 secs

     End of self-consistent calculation

     Number of k-points >= 100: set verbosity='high' to print the bands.

     the Fermi energy is    17.7143 ev

!    total energy              =    -329.26240981 Ry
     Harris-Foulkes estimate   =    -329.26240970 Ry
     estimated scf accuracy    <          8.5E-10 Ry

     total all-electron energy =     -2545.558945 Ry

     The total energy is the sum of the following terms:

     one-electron contribution =    -112.02135792 Ry
     hartree contribution      =      66.24538344 Ry
     xc contribution           =     -34.81013532 Ry
     ewald contribution        =    -172.52662280 Ry
     one-center paw contrib.   =     -76.15039095 Ry
     smearing contrib. (-TS)   =       0.00071375 Ry

     total magnetization       =     2.14 Bohr mag/cell
     absolute magnetization    =     2.26 Bohr mag/cell

     convergence has been achieved in  12 iterations

     Forces acting on atoms (Ry/au):


     negative rho (up, down):  0.000E+00 1.634E-04
     atom    1 type  1   force =     0.00000000    0.00000000    0.00000000

     Total force =     0.000000     Total SCF correction =     0.000000


     entering subroutine stress ...


     negative rho (up, down):  0.000E+00 1.634E-04
          total   stress  (Ry/bohr**3)                   (kbar)     P= -133.60
  -0.00090818   0.00000000  -0.00000000       -133.60      0.00     -0.00
   0.00000000  -0.00090818   0.00000000          0.00   -133.60      0.00
  -0.00000000   0.00000000  -0.00090818         -0.00      0.00   -133.60


     Writing output data file Fe_bcc.save

     init_run     :      2.03s CPU      2.15s WALL (       1 calls)
     electrons    :     55.93s CPU     60.63s WALL (       1 calls)
     forces       :      0.17s CPU      0.17s WALL (       1 calls)
     stress       :      0.65s CPU      0.67s WALL (       1 calls)

     Called by init_run:
     wfcinit      :      1.04s CPU      1.12s WALL (       1 calls)
     potinit      :      0.49s CPU      0.50s WALL (       1 calls)

     Called by electrons:
     c_bands      :     35.58s CPU     39.19s WALL (      12 calls)
     sum_band     :      6.87s CPU      7.21s WALL (      12 calls)
     v_of_rho     :      0.39s CPU      0.42s WALL (      13 calls)
     newd         :      0.36s CPU      0.39s WALL (      13 calls)
     mix_rho      :      0.07s CPU      0.09s WALL (      12 calls)

     Called by c_bands:
     init_us_2    :      0.93s CPU      0.98s WALL (    3024 calls)
     cegterg      :     34.07s CPU     37.51s WALL (    1344 calls)

     Called by *egterg:
     h_psi        :     27.70s CPU     30.76s WALL (    4403 calls)
     s_psi        :      0.88s CPU      0.80s WALL (    4403 calls)
     g_psi        :      0.15s CPU      0.16s WALL (    2947 calls)
     cdiaghg      :      1.86s CPU      1.98s WALL (    4291 calls)

     Called by h_psi:
     add_vuspsi   :      0.99s CPU      0.98s WALL (    4403 calls)

     General routines
     calbec       :      1.22s CPU      1.33s WALL (    5971 calls)
     fft          :      0.20s CPU      0.21s WALL (     437 calls)
     ffts         :      0.02s CPU      0.02s WALL (      50 calls)
     fftw         :     25.89s CPU     28.64s WALL (   95934 calls)
     interpolate  :      0.06s CPU      0.06s WALL (      50 calls)
     davcio       :      0.00s CPU      0.00s WALL (     112 calls)


     PAW routines
     PAW_pot      :     13.09s CPU     13.77s WALL (      13 calls)
     PAW_symme    :      0.02s CPU      0.02s WALL (      25 calls)

     PWSCF        :  0m59.29s CPU     1m 4.27s WALL


   This run was terminated on:  10:34:23  11May2015            

=------------------------------------------------------------------------------=
   JOB DONE.
=------------------------------------------------------------------------------=
