
     Program PWSCF v.5.1.2 starts on 11May2015 at 10:31:21 

     This program is part of the open-source Quantum ESPRESSO suite
     for quantum simulation of materials; please cite
         "P. Giannozzi et al., J. Phys.:Condens. Matter 21 395502 (2009);
          URL http://www.quantum-espresso.org", 
     in publications or presentations arising from this work. More details at
     http://www.quantum-espresso.org/quote

     Serial version
     Reading input from Fe_bcc_5.46_10.pw.in

     Current dimensions of program PWSCF are:
     Max number of different atomic species (ntypx) = 10
     Max number of k-points (npk) =  40000
     Max angular momentum in pseudopotentials (lmaxx) =  3
               file Fe.pbe-spn-kjpaw_psl.0.2.1.UPF: wavefunction(s)  3D renormalized

     G-vector sticks info
     --------------------
     sticks:   dense  smooth     PW     G-vecs:    dense   smooth      PW
     Sum         411     337    117                 5425     3925     767

     Generating pointlists ...
     new r_m :   0.3572 (alat units)  1.9505 (a.u.) for type    1


     bravais-lattice index     =            3
     lattice parameter (alat)  =       5.4600  a.u.
     unit-cell volume          =      81.3857 (a.u.)^3
     number of atoms/cell      =            1
     number of atomic types    =            1
     number of electrons       =        16.00
     number of Kohn-Sham states=           12
     kinetic-energy cutoff     =      50.0000  Ry
     charge density cutoff     =     250.0000  Ry
     convergence threshold     =      1.0E-08
     mixing beta               =       0.7000
     number of iterations used =            8  plain     mixing
     Exchange-correlation      =  SLA  PW   PBX  PBC ( 1  4  3  4 0 0)

     celldm(1)=   5.460000  celldm(2)=   0.000000  celldm(3)=   0.000000
     celldm(4)=   0.000000  celldm(5)=   0.000000  celldm(6)=   0.000000

     crystal axes: (cart. coord. in units of alat)
               a(1) = (   0.500000   0.500000   0.500000 )  
               a(2) = (  -0.500000   0.500000   0.500000 )  
               a(3) = (  -0.500000  -0.500000   0.500000 )  

     reciprocal axes: (cart. coord. in units 2 pi/alat)
               b(1) = (  1.000000  0.000000  1.000000 )  
               b(2) = ( -1.000000  1.000000  0.000000 )  
               b(3) = (  0.000000 -1.000000  1.000000 )  


     PseudoPot. # 1 for Fe read from file:
     ./Fe.pbe-spn-kjpaw_psl.0.2.1.UPF
     MD5 check sum: a0a08122d52b112de96d1da1d7dd020f
     Pseudo is Projector augmented-wave + core cor, Zval = 16.0
     Generated using "atomic" code by A. Dal Corso  v.5.0.2 svn rev. 9415
     Shape of augmentation charge: PSQ
     Using radial grid of 1191 points,  6 beta functions with: 
                l(1) =   0
                l(2) =   0
                l(3) =   1
                l(4) =   1
                l(5) =   2
                l(6) =   2
     Q(r) pseudized with 0 coefficients 


     atomic species   valence    mass     pseudopotential
        Fe            16.00    55.85000     Fe( 1.00)

     Starting magnetic structure 
     atomic species   magnetization
        Fe           0.700

     48 Sym. Ops., with inversion, found



   Cartesian axes

     site n.     atom                  positions (alat units)
         1           Fe  tau(   1) = (   0.0000000   0.0000000   0.0000000  )

     number of k points=    94  Marzari-Vanderbilt smearing, width (Ry)=  0.0250
                       cart. coord. in units 2pi/alat
        k(    1) = (   0.0000000   0.0000000   0.0000000), wk =   0.0010000
        k(    2) = (   0.0000000  -0.1000000   0.1000000), wk =   0.0120000
        k(    3) = (   0.0000000  -0.2000000   0.2000000), wk =   0.0120000
        k(    4) = (   0.0000000  -0.3000000   0.3000000), wk =   0.0120000
        k(    5) = (   0.0000000  -0.4000000   0.4000000), wk =   0.0120000
        k(    6) = (   0.0000000   0.5000000  -0.5000000), wk =   0.0060000
        k(    7) = (  -0.1000000  -0.1000000   0.2000000), wk =   0.0240000
        k(    8) = (  -0.1000000  -0.2000000   0.3000000), wk =   0.0480000
        k(    9) = (  -0.1000000  -0.3000000   0.4000000), wk =   0.0480000
        k(   10) = (  -0.1000000   0.6000000  -0.5000000), wk =   0.0480000
        k(   11) = (  -0.2000000  -0.2000000   0.4000000), wk =   0.0240000
        k(   12) = (  -0.2000000   0.7000000  -0.5000000), wk =   0.0480000
        k(   13) = (  -0.2000000   0.6000000  -0.4000000), wk =   0.0240000
        k(   14) = (  -0.3000000   0.7000000  -0.4000000), wk =   0.0240000
        k(   15) = (   0.0000000   0.0000000   0.2000000), wk =   0.0060000
        k(   16) = (   0.0000000  -0.1000000   0.3000000), wk =   0.0240000
        k(   17) = (   0.0000000  -0.2000000   0.4000000), wk =   0.0240000
        k(   18) = (   0.0000000  -0.3000000   0.5000000), wk =   0.0240000
        k(   19) = (   0.0000000   0.6000000  -0.4000000), wk =   0.0120000
        k(   20) = (  -0.1000000  -0.1000000   0.4000000), wk =   0.0240000
        k(   21) = (  -0.1000000  -0.2000000   0.5000000), wk =   0.0480000
        k(   22) = (  -0.1000000   0.7000000  -0.4000000), wk =   0.0480000
        k(   23) = (  -0.2000000   0.2000000   0.2000000), wk =   0.0080000
        k(   24) = (  -0.2000000   0.8000000  -0.4000000), wk =   0.0240000
        k(   25) = (  -0.2000000   0.7000000  -0.3000000), wk =   0.0240000
        k(   26) = (  -0.3000000   0.3000000   0.2000000), wk =   0.0240000
        k(   27) = (   0.6000000  -0.6000000   0.2000000), wk =   0.0240000
        k(   28) = (   0.6000000  -0.7000000   0.3000000), wk =   0.0240000
        k(   29) = (   0.5000000  -0.5000000   0.2000000), wk =   0.0120000
        k(   30) = (   0.5000000  -0.6000000   0.3000000), wk =   0.0480000
        k(   31) = (   0.4000000  -0.6000000   0.4000000), wk =   0.0080000
        k(   32) = (   0.0000000   0.0000000   0.4000000), wk =   0.0060000
        k(   33) = (   0.0000000  -0.1000000   0.5000000), wk =   0.0240000
        k(   34) = (   0.0000000  -0.2000000   0.6000000), wk =   0.0240000
        k(   35) = (   0.0000000   0.7000000  -0.3000000), wk =   0.0120000
        k(   36) = (  -0.1000000  -0.1000000   0.6000000), wk =   0.0240000
        k(   37) = (  -0.1000000   0.8000000  -0.3000000), wk =   0.0480000
        k(   38) = (  -0.2000000   0.8000000  -0.2000000), wk =   0.0080000
        k(   39) = (   0.6000000  -0.6000000   0.4000000), wk =   0.0080000
        k(   40) = (   0.5000000  -0.5000000   0.4000000), wk =   0.0120000
        k(   41) = (   0.0000000   0.0000000   0.6000000), wk =   0.0060000
        k(   42) = (   0.0000000  -0.1000000   0.7000000), wk =   0.0240000
        k(   43) = (   0.0000000   0.8000000  -0.2000000), wk =   0.0120000
        k(   44) = (  -0.1000000   0.9000000  -0.2000000), wk =   0.0240000
        k(   45) = (   0.0000000   0.0000000   0.8000000), wk =   0.0060000
        k(   46) = (   0.0000000   0.9000000  -0.1000000), wk =   0.0120000
        k(   47) = (   0.0000000   0.0000000  -1.0000000), wk =   0.0010000
        k(   48) = (   0.0000000   0.0000000   0.0000000), wk =   0.0010000
        k(   49) = (   0.0000000  -0.1000000   0.1000000), wk =   0.0120000
        k(   50) = (   0.0000000  -0.2000000   0.2000000), wk =   0.0120000
        k(   51) = (   0.0000000  -0.3000000   0.3000000), wk =   0.0120000
        k(   52) = (   0.0000000  -0.4000000   0.4000000), wk =   0.0120000
        k(   53) = (   0.0000000   0.5000000  -0.5000000), wk =   0.0060000
        k(   54) = (  -0.1000000  -0.1000000   0.2000000), wk =   0.0240000
        k(   55) = (  -0.1000000  -0.2000000   0.3000000), wk =   0.0480000
        k(   56) = (  -0.1000000  -0.3000000   0.4000000), wk =   0.0480000
        k(   57) = (  -0.1000000   0.6000000  -0.5000000), wk =   0.0480000
        k(   58) = (  -0.2000000  -0.2000000   0.4000000), wk =   0.0240000
        k(   59) = (  -0.2000000   0.7000000  -0.5000000), wk =   0.0480000
        k(   60) = (  -0.2000000   0.6000000  -0.4000000), wk =   0.0240000
        k(   61) = (  -0.3000000   0.7000000  -0.4000000), wk =   0.0240000
        k(   62) = (   0.0000000   0.0000000   0.2000000), wk =   0.0060000
        k(   63) = (   0.0000000  -0.1000000   0.3000000), wk =   0.0240000
        k(   64) = (   0.0000000  -0.2000000   0.4000000), wk =   0.0240000
        k(   65) = (   0.0000000  -0.3000000   0.5000000), wk =   0.0240000
        k(   66) = (   0.0000000   0.6000000  -0.4000000), wk =   0.0120000
        k(   67) = (  -0.1000000  -0.1000000   0.4000000), wk =   0.0240000
        k(   68) = (  -0.1000000  -0.2000000   0.5000000), wk =   0.0480000
        k(   69) = (  -0.1000000   0.7000000  -0.4000000), wk =   0.0480000
        k(   70) = (  -0.2000000   0.2000000   0.2000000), wk =   0.0080000
        k(   71) = (  -0.2000000   0.8000000  -0.4000000), wk =   0.0240000
        k(   72) = (  -0.2000000   0.7000000  -0.3000000), wk =   0.0240000
        k(   73) = (  -0.3000000   0.3000000   0.2000000), wk =   0.0240000
        k(   74) = (   0.6000000  -0.6000000   0.2000000), wk =   0.0240000
        k(   75) = (   0.6000000  -0.7000000   0.3000000), wk =   0.0240000
        k(   76) = (   0.5000000  -0.5000000   0.2000000), wk =   0.0120000
        k(   77) = (   0.5000000  -0.6000000   0.3000000), wk =   0.0480000
        k(   78) = (   0.4000000  -0.6000000   0.4000000), wk =   0.0080000
        k(   79) = (   0.0000000   0.0000000   0.4000000), wk =   0.0060000
        k(   80) = (   0.0000000  -0.1000000   0.5000000), wk =   0.0240000
        k(   81) = (   0.0000000  -0.2000000   0.6000000), wk =   0.0240000
        k(   82) = (   0.0000000   0.7000000  -0.3000000), wk =   0.0120000
        k(   83) = (  -0.1000000  -0.1000000   0.6000000), wk =   0.0240000
        k(   84) = (  -0.1000000   0.8000000  -0.3000000), wk =   0.0480000
        k(   85) = (  -0.2000000   0.8000000  -0.2000000), wk =   0.0080000
        k(   86) = (   0.6000000  -0.6000000   0.4000000), wk =   0.0080000
        k(   87) = (   0.5000000  -0.5000000   0.4000000), wk =   0.0120000
        k(   88) = (   0.0000000   0.0000000   0.6000000), wk =   0.0060000
        k(   89) = (   0.0000000  -0.1000000   0.7000000), wk =   0.0240000
        k(   90) = (   0.0000000   0.8000000  -0.2000000), wk =   0.0120000
        k(   91) = (  -0.1000000   0.9000000  -0.2000000), wk =   0.0240000
        k(   92) = (   0.0000000   0.0000000   0.8000000), wk =   0.0060000
        k(   93) = (   0.0000000   0.9000000  -0.1000000), wk =   0.0120000
        k(   94) = (   0.0000000   0.0000000  -1.0000000), wk =   0.0010000

     Dense  grid:     5425 G-vectors     FFT dimensions: (  24,  24,  24)

     Smooth grid:     3925 G-vectors     FFT dimensions: (  24,  24,  24)

     Largest allocated arrays     est. size (Mb)     dimensions
        Kohn-Sham Wavefunctions         0.09 Mb     (     498,   12)
        NL pseudopotentials             0.14 Mb     (     498,   18)
        Each V/rho on FFT grid          0.42 Mb     (   13824,   2)
        Each G-vector array             0.04 Mb     (    5425)
        G-vector shells                 0.00 Mb     (      88)
     Largest temporary arrays     est. size (Mb)     dimensions
        Auxiliary wavefunctions         0.36 Mb     (     498,   48)
        Each subspace H/S matrix        0.04 Mb     (      48,   48)
        Each <psi_i|beta_j> matrix      0.00 Mb     (      18,   12)
        Arrays for rho mixing           1.69 Mb     (   13824,    8)

     Check: negative/imaginary core charge=   -0.000416    0.000000

     Initial potential from superposition of free atoms

     starting charge   15.99956, renormalised to   16.00000
     Starting wfc are   13 randomized atomic wfcs

     total cpu time spent up to now is        2.2 secs

     Self-consistent Calculation

     iteration #  1     ecut=    50.00 Ry     beta=0.70
     Davidson diagonalization with overlap
     ethr =  1.00E-02,  avg # of iterations =  3.2

     negative rho (up, down):  0.000E+00 3.592E-04

     Magnetic moment per site:
     atom:    1    charge:   14.3089    magn:    5.7053    constr:    0.0000

     total cpu time spent up to now is        4.8 secs

     total energy              =    -328.99623310 Ry
     Harris-Foulkes estimate   =    -328.07122021 Ry
     estimated scf accuracy    <       1.50579675 Ry

     total magnetization       =     3.84 Bohr mag/cell
     absolute magnetization    =     3.88 Bohr mag/cell

     iteration #  2     ecut=    50.00 Ry     beta=0.70
     Davidson diagonalization with overlap
     ethr =  9.41E-03,  avg # of iterations =  1.2

     negative rho (up, down):  0.000E+00 3.917E-04

     Magnetic moment per site:
     atom:    1    charge:   14.5338    magn:    3.5414    constr:    0.0000

     total cpu time spent up to now is        7.1 secs

     total energy              =    -329.15885511 Ry
     Harris-Foulkes estimate   =    -329.10460631 Ry
     estimated scf accuracy    <       0.34199641 Ry

     total magnetization       =     3.11 Bohr mag/cell
     absolute magnetization    =     3.23 Bohr mag/cell

     iteration #  3     ecut=    50.00 Ry     beta=0.70
     Davidson diagonalization with overlap
     ethr =  2.14E-03,  avg # of iterations =  2.1

     negative rho (up, down):  0.000E+00 4.074E-04

     Magnetic moment per site:
     atom:    1    charge:   14.4186    magn:    2.5903    constr:    0.0000

     total cpu time spent up to now is        9.4 secs

     total energy              =    -329.17907627 Ry
     Harris-Foulkes estimate   =    -329.34291551 Ry
     estimated scf accuracy    <       0.46476949 Ry

     total magnetization       =     2.63 Bohr mag/cell
     absolute magnetization    =     2.76 Bohr mag/cell

     iteration #  4     ecut=    50.00 Ry     beta=0.70
     Davidson diagonalization with overlap
     ethr =  2.14E-03,  avg # of iterations =  2.0

     negative rho (up, down):  0.000E+00 2.462E-04

     Magnetic moment per site:
     atom:    1    charge:   14.4595    magn:    2.3574    constr:    0.0000

     total cpu time spent up to now is       11.6 secs

     total energy              =    -329.25668270 Ry
     Harris-Foulkes estimate   =    -329.25617628 Ry
     estimated scf accuracy    <       0.00193087 Ry

     total magnetization       =     2.41 Bohr mag/cell
     absolute magnetization    =     2.58 Bohr mag/cell

     iteration #  5     ecut=    50.00 Ry     beta=0.70
     Davidson diagonalization with overlap
     ethr =  1.21E-05,  avg # of iterations =  3.4

     negative rho (up, down):  0.000E+00 2.504E-04

     Magnetic moment per site:
     atom:    1    charge:   14.4587    magn:    2.3545    constr:    0.0000

     total cpu time spent up to now is       14.5 secs

     total energy              =    -329.26038126 Ry
     Harris-Foulkes estimate   =    -329.26003606 Ry
     estimated scf accuracy    <       0.00062988 Ry

     total magnetization       =     2.22 Bohr mag/cell
     absolute magnetization    =     2.38 Bohr mag/cell

     iteration #  6     ecut=    50.00 Ry     beta=0.70
     Davidson diagonalization with overlap
     ethr =  3.94E-06,  avg # of iterations =  1.2

     negative rho (up, down):  0.000E+00 3.004E-04

     Magnetic moment per site:
     atom:    1    charge:   14.4568    magn:    2.5031    constr:    0.0000

     total cpu time spent up to now is       16.8 secs

     total energy              =    -329.25792766 Ry
     Harris-Foulkes estimate   =    -329.26040521 Ry
     estimated scf accuracy    <       0.00072728 Ry

     total magnetization       =     2.21 Bohr mag/cell
     absolute magnetization    =     2.37 Bohr mag/cell

     iteration #  7     ecut=    50.00 Ry     beta=0.70
     Davidson diagonalization with overlap
     ethr =  3.94E-06,  avg # of iterations =  1.3

     negative rho (up, down):  0.000E+00 2.198E-04

     Magnetic moment per site:
     atom:    1    charge:   14.4519    magn:    2.2511    constr:    0.0000

     total cpu time spent up to now is       19.0 secs

     total energy              =    -329.25962535 Ry
     Harris-Foulkes estimate   =    -329.25833000 Ry
     estimated scf accuracy    <       0.00152150 Ry

     total magnetization       =     2.30 Bohr mag/cell
     absolute magnetization    =     2.47 Bohr mag/cell

     iteration #  8     ecut=    50.00 Ry     beta=0.70
     Davidson diagonalization with overlap
     ethr =  3.94E-06,  avg # of iterations =  1.5

     negative rho (up, down):  0.000E+00 7.114E-05

     Magnetic moment per site:
     atom:    1    charge:   14.4404    magn:    1.8168    constr:    0.0000

     total cpu time spent up to now is       21.3 secs

     total energy              =    -329.25232651 Ry
     Harris-Foulkes estimate   =    -329.26092726 Ry
     estimated scf accuracy    <       0.00027615 Ry

     total magnetization       =     2.16 Bohr mag/cell
     absolute magnetization    =     2.31 Bohr mag/cell

     iteration #  9     ecut=    50.00 Ry     beta=0.70
     Davidson diagonalization with overlap
     ethr =  1.73E-06,  avg # of iterations =  2.8

     negative rho (up, down):  0.000E+00 1.241E-04

     Magnetic moment per site:
     atom:    1    charge:   14.4392    magn:    1.9961    constr:    0.0000

     total cpu time spent up to now is       24.2 secs

     total energy              =    -329.25959862 Ry
     Harris-Foulkes estimate   =    -329.25524294 Ry
     estimated scf accuracy    <       0.00292630 Ry

     total magnetization       =     2.00 Bohr mag/cell
     absolute magnetization    =     2.11 Bohr mag/cell

     iteration # 10     ecut=    50.00 Ry     beta=0.70
     Davidson diagonalization with overlap
     ethr =  1.73E-06,  avg # of iterations =  1.5

     negative rho (up, down):  0.000E+00 1.661E-04

     Magnetic moment per site:
     atom:    1    charge:   14.4406    magn:    2.1432    constr:    0.0000

     total cpu time spent up to now is       26.4 secs

     total energy              =    -329.26087537 Ry
     Harris-Foulkes estimate   =    -329.25993933 Ry
     estimated scf accuracy    <       0.00085479 Ry

     total magnetization       =     2.07 Bohr mag/cell
     absolute magnetization    =     2.19 Bohr mag/cell

     iteration # 11     ecut=    50.00 Ry     beta=0.70
     Davidson diagonalization with overlap
     ethr =  1.73E-06,  avg # of iterations =  1.5

     negative rho (up, down):  0.000E+00 1.773E-04

     Magnetic moment per site:
     atom:    1    charge:   14.4417    magn:    2.1835    constr:    0.0000

     total cpu time spent up to now is       28.6 secs

     total energy              =    -329.26116249 Ry
     Harris-Foulkes estimate   =    -329.26112099 Ry
     estimated scf accuracy    <       0.00005934 Ry

     total magnetization       =     2.11 Bohr mag/cell
     absolute magnetization    =     2.24 Bohr mag/cell

     iteration # 12     ecut=    50.00 Ry     beta=0.70
     Davidson diagonalization with overlap
     ethr =  3.71E-07,  avg # of iterations =  1.9

     negative rho (up, down):  0.000E+00 1.647E-04

     Magnetic moment per site:
     atom:    1    charge:   14.4425    magn:    2.1303    constr:    0.0000

     total cpu time spent up to now is       30.8 secs

     total energy              =    -329.26111677 Ry
     Harris-Foulkes estimate   =    -329.26119229 Ry
     estimated scf accuracy    <       0.00001368 Ry

     total magnetization       =     2.12 Bohr mag/cell
     absolute magnetization    =     2.25 Bohr mag/cell

     iteration # 13     ecut=    50.00 Ry     beta=0.70
     Davidson diagonalization with overlap
     ethr =  8.55E-08,  avg # of iterations =  2.0

     negative rho (up, down):  0.000E+00 1.791E-04

     Magnetic moment per site:
     atom:    1    charge:   14.4428    magn:    2.1750    constr:    0.0000

     total cpu time spent up to now is       33.2 secs

     total energy              =    -329.26117661 Ry
     Harris-Foulkes estimate   =    -329.26113556 Ry
     estimated scf accuracy    <       0.00005235 Ry

     total magnetization       =     2.10 Bohr mag/cell
     absolute magnetization    =     2.24 Bohr mag/cell

     iteration # 14     ecut=    50.00 Ry     beta=0.70
     Davidson diagonalization with overlap
     ethr =  8.55E-08,  avg # of iterations =  2.0

     negative rho (up, down):  0.000E+00 1.788E-04

     Magnetic moment per site:
     atom:    1    charge:   14.4428    magn:    2.1769    constr:    0.0000

     total cpu time spent up to now is       35.6 secs

     total energy              =    -329.26120591 Ry
     Harris-Foulkes estimate   =    -329.26120150 Ry
     estimated scf accuracy    <       0.00000014 Ry

     total magnetization       =     2.12 Bohr mag/cell
     absolute magnetization    =     2.25 Bohr mag/cell

     iteration # 15     ecut=    50.00 Ry     beta=0.70
     Davidson diagonalization with overlap
     ethr =  8.61E-10,  avg # of iterations =  3.0

     negative rho (up, down):  0.000E+00 1.785E-04

     Magnetic moment per site:
     atom:    1    charge:   14.4428    magn:    2.1759    constr:    0.0000

     total cpu time spent up to now is       38.3 secs

     total energy              =    -329.26120665 Ry
     Harris-Foulkes estimate   =    -329.26120611 Ry
     estimated scf accuracy    <       0.00000003 Ry

     total magnetization       =     2.12 Bohr mag/cell
     absolute magnetization    =     2.25 Bohr mag/cell

     iteration # 16     ecut=    50.00 Ry     beta=0.70
     Davidson diagonalization with overlap
     ethr =  1.64E-10,  avg # of iterations =  2.1

     negative rho (up, down):  0.000E+00 1.787E-04

     Magnetic moment per site:
     atom:    1    charge:   14.4427    magn:    2.1770    constr:    0.0000

     total cpu time spent up to now is       40.6 secs

     total energy              =    -329.26120683 Ry
     Harris-Foulkes estimate   =    -329.26120669 Ry
     estimated scf accuracy    <       0.00000005 Ry

     total magnetization       =     2.12 Bohr mag/cell
     absolute magnetization    =     2.26 Bohr mag/cell

     iteration # 17     ecut=    50.00 Ry     beta=0.70
     Davidson diagonalization with overlap
     ethr =  1.64E-10,  avg # of iterations =  1.8

     negative rho (up, down):  0.000E+00 1.787E-04

     Magnetic moment per site:
     atom:    1    charge:   14.4427    magn:    2.1773    constr:    0.0000

     total cpu time spent up to now is       42.8 secs

     End of self-consistent calculation

 ------ SPIN UP ------------


          k = 0.0000 0.0000 0.0000 (   459 PWs)   bands (ev):

   -71.0363 -36.8757 -36.8757 -36.8757   8.8139  14.8829  14.8829  14.8829
    15.7783  15.7783  41.3034  41.3034

          k = 0.0000-0.1000 0.1000 (   489 PWs)   bands (ev):

   -71.0317 -36.9115 -36.8886 -36.8781   9.2057  14.7807  14.8664  15.0877
    15.6925  15.7868  38.8572  40.5957

          k = 0.0000-0.2000 0.2000 (   491 PWs)   bands (ev):

   -71.0166 -36.9964 -36.9179 -36.8787  10.3029  14.5198  14.7341  15.6453
    15.6507  15.8165  34.4408  38.6005

          k = 0.0000-0.3000 0.3000 (   487 PWs)   bands (ev):

   -70.9975 -37.1002 -36.9531 -36.8786  11.6656  14.2095  14.8109  15.7988
    15.8680  16.4126  29.8712  36.6075

          k = 0.0000-0.4000 0.4000 (   484 PWs)   bands (ev):

   -70.9821 -37.1834 -36.9813 -36.8783  12.2881  13.9677  15.7363  15.9223
    16.3534  17.0976  25.8571  35.2668

          k = 0.0000 0.5000-0.5000 (   496 PWs)   bands (ev):

   -70.9768 -37.2161 -36.9928 -36.8786  12.3387  13.8773  15.9122  15.9463
    17.3798  17.4881  23.8136  34.7908

          k =-0.1000-0.1000 0.2000 (   489 PWs)   bands (ev):

   -71.0212 -36.9699 -36.9015 -36.8862   9.9578  14.6527  14.6982  15.5144
    15.5864  15.8398  36.4408  37.5819

          k =-0.1000-0.2000 0.3000 (   487 PWs)   bands (ev):

   -71.0040 -37.0586 -36.9354 -36.8897  11.2584  14.3571  14.5148  15.6176
    15.9228  16.2748  32.2946  35.2866

          k =-0.1000-0.3000 0.4000 (   487 PWs)   bands (ev):

   -70.9870 -37.1449 -36.9742 -36.8903  12.3310  14.0836  14.8309  15.8256
    16.0522  17.2620  27.9219  33.7912

          k =-0.1000 0.6000-0.5000 (   488 PWs)   bands (ev):

   -70.9764 -37.1975 -36.9984 -36.8906  12.5280  13.9312  15.4611  15.8960
    16.5497  18.5241  24.4996  32.9711

          k =-0.2000-0.2000 0.4000 (   489 PWs)   bands (ev):

   -70.9888 -37.1216 -36.9709 -36.9044  12.4539  14.0486  14.4070  15.6779
    16.0605  17.3947  30.2987  31.0436

          k =-0.2000 0.7000-0.5000 (   486 PWs)   bands (ev):

   -70.9763 -37.1614 -37.0157 -36.9101  13.0199  13.9261  14.6049  15.8524
    16.2447  19.0914  26.4793  29.5666

          k =-0.2000 0.6000-0.4000 (   484 PWs)   bands (ev):

   -70.9715 -37.1739 -37.0362 -36.9113  13.0225  13.9419  14.7635  15.9200
    16.4163  20.6653  24.0388  29.1426

          k =-0.3000 0.7000-0.4000 (   486 PWs)   bands (ev):

   -70.9698 -37.1409 -37.0750 -36.9196  13.4941  13.8606  14.2919  16.0339
    16.2562  21.6779  25.0185  26.3769

          k = 0.0000 0.0000 0.2000 (   498 PWs)   bands (ev):

   -71.0264 -36.9206 -36.9009 -36.9009   9.5884  14.8906  14.8906  15.0898
    15.4535  15.9051  38.0693  39.8798

          k = 0.0000-0.1000 0.3000 (   489 PWs)   bands (ev):

   -71.0111 -36.9960 -36.9296 -36.9052  10.6476  14.7075  14.7494  15.3231
    15.6007  16.0285  34.6699  37.6502

          k = 0.0000-0.2000 0.4000 (   474 PWs)   bands (ev):

   -70.9921 -37.0953 -36.9643 -36.9026  11.9472  14.4239  14.5041  15.6251
    16.2821  16.3692  30.1562  35.9444

          k = 0.0000-0.3000 0.5000 (   483 PWs)   bands (ev):

   -70.9776 -37.1762 -36.9938 -36.9018  12.5171  14.1991  14.7829  15.7847
    17.0668  17.4382  26.0638  34.8626

          k = 0.0000 0.6000-0.4000 (   484 PWs)   bands (ev):

   -70.9719 -37.2066 -37.0048 -36.9012  12.5476  14.1147  15.0143  15.7627
    17.3556  18.7322  23.8772  34.3289

          k =-0.1000-0.1000 0.4000 (   484 PWs)   bands (ev):

   -70.9947 -37.0622 -36.9626 -36.9222  11.8008  14.3414  14.7433  15.3363
    16.0913  16.4084  32.5211  33.4071

          k =-0.1000-0.2000 0.5000 (   486 PWs)   bands (ev):

   -70.9785 -37.1361 -37.0031 -36.9251  12.7378  14.0286  14.6211  15.6312
    16.4873  17.6627  28.4309  31.5305

          k =-0.1000 0.7000-0.4000 (   483 PWs)   bands (ev):

   -70.9684 -37.1822 -37.0287 -36.9243  12.8850  14.1986  14.4516  15.7492
    16.9641  19.6291  24.7854  30.6837

          k =-0.2000 0.2000 0.2000 (   483 PWs)   bands (ev):

   -71.0082 -37.0457 -36.9031 -36.9031  10.9921  14.3696  14.3696  15.7641
    15.7641  16.2917  34.4695  34.4695

          k =-0.2000 0.8000-0.4000 (   491 PWs)   bands (ev):

   -70.9674 -37.1552 -37.0566 -36.9339  13.3552  13.6382  14.4800  15.9081
    16.5965  19.9101  26.8673  27.6828

          k =-0.2000 0.7000-0.3000 (   484 PWs)   bands (ev):

   -70.9627 -37.1534 -37.0871 -36.9347  13.3856  13.8889  14.1399  16.1046
    16.6483  22.1451  24.2474  26.9837

          k =-0.3000 0.3000 0.2000 (   489 PWs)   bands (ev):

   -70.9927 -37.1179 -36.9470 -36.9060  12.3193  14.0786  14.2231  15.8132
    15.8792  17.3654  30.3232  32.8914

          k = 0.6000-0.6000 0.2000 (   494 PWs)   bands (ev):

   -70.9802 -37.1660 -36.9917 -36.9091  12.8569  13.8861  14.9270  15.9165
    15.9388  18.8188  26.2628  31.8591

          k = 0.6000-0.7000 0.3000 (   490 PWs)   bands (ev):

   -70.9814 -37.1471 -36.9801 -36.9304  13.2953  13.8884  14.1521  15.8890
    15.9650  18.9430  28.6385  29.2835

          k = 0.5000-0.5000 0.2000 (   492 PWs)   bands (ev):

   -70.9753 -37.1818 -37.0105 -36.9098  12.8489  13.8194  15.4968  15.9557
    15.9572  20.1100  23.9769  31.5060

          k = 0.5000-0.6000 0.3000 (   492 PWs)   bands (ev):

   -70.9744 -37.1447 -37.0288 -36.9381  13.3799  13.8425  14.6173  15.9683
    16.0178  21.0872  25.1765  28.2544

          k = 0.4000-0.6000 0.4000 (   490 PWs)   bands (ev):

   -70.9721 -37.0899 -37.0899 -36.9487  13.5677  14.1588  14.1588  16.0241
    16.0241  23.8209  23.8209  25.8946

          k = 0.0000 0.0000 0.4000 (   482 PWs)   bands (ev):

   -70.9969 -37.0093 -36.9596 -36.9596  11.5607  14.5926  15.0646  15.0646
    15.6394  16.3472  34.9021  35.6044

          k = 0.0000-0.1000 0.5000 (   484 PWs)   bands (ev):

   -70.9798 -37.0844 -36.9968 -36.9688  12.5573  14.0328  15.0044  15.4079
    16.2742  17.0633  30.9518  33.5428

          k = 0.0000-0.2000 0.6000 (   482 PWs)   bands (ev):

   -70.9658 -37.1561 -37.0265 -36.9646  12.9459  13.8183  14.8485  15.6050
    16.9874  18.8902  26.7260  32.0801

          k = 0.0000 0.7000-0.3000 (   484 PWs)   bands (ev):

   -70.9606 -37.1836 -37.0377 -36.9631  12.9111  13.8825  14.7849  15.6205
    17.2926  20.7407  24.1283  31.5365

          k =-0.1000-0.1000 0.6000 (   482 PWs)   bands (ev):

   -70.9648 -37.1268 -37.0409 -36.9844  13.0633  13.5443  15.0784  15.7299
    16.6521  18.7270  29.2131  29.6848

          k =-0.1000 0.8000-0.3000 (   485 PWs)   bands (ev):

   -70.9558 -37.1578 -37.0736 -36.9842  13.0986  13.4262  14.9250  16.0170
    17.0078  21.2976  25.4977  28.5680

          k =-0.2000 0.8000-0.2000 (   481 PWs)   bands (ev):

   -70.9517 -37.1275 -37.1275 -36.9859  13.2194  13.2194  14.8231  16.6562
    16.6562  24.1895  24.1895  26.0107

          k = 0.6000-0.6000 0.4000 (   489 PWs)   bands (ev):

   -70.9752 -37.1300 -36.9883 -36.9883  13.8434  13.8434  14.1010  15.9650
    15.9650  21.0952  27.5994  27.5994

          k = 0.5000-0.5000 0.4000 (   484 PWs)   bands (ev):

   -70.9727 -37.0956 -37.0380 -36.9909  13.8138  13.8438  14.3187  15.9750
    15.9846  23.4060  24.7946  27.2574

          k = 0.0000 0.0000 0.6000 (   486 PWs)   bands (ev):

   -70.9641 -37.0850 -37.0354 -37.0354  12.9256  13.5269  15.6449  15.6449
    16.3341  18.3347  31.2901  31.2901

          k = 0.0000-0.1000 0.7000 (   483 PWs)   bands (ev):

   -70.9513 -37.1316 -37.0668 -37.0417  12.9497  13.1149  15.7641  15.9781
    16.8972  20.5628  27.7564  29.6711

          k = 0.0000 0.8000-0.2000 (   480 PWs)   bands (ev):

   -70.9463 -37.1553 -37.0789 -37.0381  12.8491  13.0394  15.7458  16.0814
    17.2154  22.9813  24.7506  29.0585

          k =-0.1000 0.9000-0.2000 (   476 PWs)   bands (ev):

   -70.9427 -37.1372 -37.1067 -37.0499  12.8131  12.8237  15.8542  16.6018
    17.0293  23.2338  26.4594  27.0016

          k = 0.0000 0.0000 0.8000 (   486 PWs)   bands (ev):

   -70.9397 -37.1175 -37.0994 -37.0994  12.6563  12.6783  16.5736  16.5736
    16.9079  22.7462  27.9055  27.9055

          k = 0.0000 0.9000-0.1000 (   482 PWs)   bands (ev):

   -70.9351 -37.1324 -37.1118 -37.1002  12.5153  12.5293  16.6980  16.8122
    17.1533  25.2309  25.7869  27.2244

          k = 0.0000 0.0000-1.0000 (   490 PWs)   bands (ev):

   -70.9309 -37.1243 -37.1243 -37.1243  12.3592  12.3592  17.1297  17.1297
    17.1297  26.5043  26.5043  26.5043

 ------ SPIN DOWN ----------


          k = 0.0000 0.0000 0.0000 (   459 PWs)   bands (ev):

   -68.4616 -34.3473 -34.3473 -34.3473   8.9516  16.5487  16.5487  16.5487
    18.7896  18.7896  41.0170  41.0170

          k = 0.0000-0.1000 0.1000 (   489 PWs)   bands (ev):

   -68.4563 -34.3865 -34.3610 -34.3496   9.3458  16.4272  16.5243  16.7706
    18.6595  18.7992  38.9375  40.4734

          k = 0.0000-0.2000 0.2000 (   491 PWs)   bands (ev):

   -68.4398 -34.4810 -34.3932 -34.3501  10.4683  16.1188  16.3995  17.3843
    18.4520  18.8363  34.8913  38.6766

          k = 0.0000-0.3000 0.3000 (   487 PWs)   bands (ev):

   -68.4191 -34.5965 -34.4319 -34.3500  12.0303  15.7556  16.2829  18.2239
    18.4204  18.9077  30.5749  36.6974

          k = 0.0000-0.4000 0.4000 (   484 PWs)   bands (ev):

   -68.4023 -34.6889 -34.4630 -34.3497  13.2450  15.4747  16.8179  18.5071
    18.9878  18.9908  26.8446  35.3173

          k = 0.0000 0.5000-0.5000 (   496 PWs)   bands (ev):

   -68.3963 -34.7248 -34.4755 -34.3501  13.5542  15.3703  17.5550  18.5483
    19.0241  19.3108  25.0814  34.8210

          k =-0.1000-0.1000 0.2000 (   489 PWs)   bands (ev):

   -68.4449 -34.4515 -34.3751 -34.3584  10.1091  16.2731  16.3550  17.2253
    18.4614  18.8496  36.7296  37.8379

          k =-0.1000-0.2000 0.3000 (   487 PWs)   bands (ev):

   -68.4262 -34.5502 -34.4126 -34.3622  11.4867  15.9409  16.1444  18.0147
    18.3229  18.9425  32.8601  35.6394

          k =-0.1000-0.3000 0.4000 (   487 PWs)   bands (ev):

   -68.4076 -34.6461 -34.4552 -34.3630  12.9861  15.6089  16.1641  18.3891
    18.8487  19.1529  28.7262  34.1508

          k =-0.1000 0.6000-0.5000 (   488 PWs)   bands (ev):

   -68.3961 -34.7044 -34.4819 -34.3633  13.7058  15.4184  16.7879  18.5027
    19.0424  19.9422  25.6251  33.3158

          k =-0.2000-0.2000 0.4000 (   489 PWs)   bands (ev):

   -68.4096 -34.6199 -34.4519 -34.3785  12.9078  15.7137  15.8289  18.2803
    18.8188  19.2945  30.9655  31.5942

          k =-0.2000 0.7000-0.5000 (   486 PWs)   bands (ev):

   -68.3961 -34.6641 -34.5016 -34.3848  14.0528  15.4662  15.9100  18.4119
    18.9484  20.5946  27.3369  30.1584

          k =-0.2000 0.6000-0.4000 (   484 PWs)   bands (ev):

   -68.3908 -34.6780 -34.5243 -34.3861  14.3186  15.4141  16.1547  18.5126
    18.9541  21.7807  25.1653  29.7266

          k =-0.3000 0.7000-0.4000 (   486 PWs)   bands (ev):

   -68.3889 -34.6411 -34.5677 -34.3951  14.7740  15.3880  15.6964  18.5771
    18.8357  22.8183  25.9323  27.1251

          k = 0.0000 0.0000 0.2000 (   498 PWs)   bands (ev):

   -68.4504 -34.3970 -34.3744 -34.3744   9.7335  16.5336  16.5336  16.7757
    18.3482  18.9471  38.1851  39.9980

          k = 0.0000-0.1000 0.3000 (   489 PWs)   bands (ev):

   -68.4340 -34.4807 -34.4061 -34.3794  10.8301  16.3153  16.4710  17.3287
    17.9773  19.0642  35.1299  37.9066

          k = 0.0000-0.2000 0.4000 (   474 PWs)   bands (ev):

   -68.4134 -34.5910 -34.4446 -34.3768  12.3537  15.9838  16.2655  17.9747
    18.1746  19.1847  30.8558  36.2106

          k = 0.0000-0.3000 0.5000 (   483 PWs)   bands (ev):

   -68.3975 -34.6806 -34.4769 -34.3759  13.5401  15.7226  16.4049  18.1988
    18.9558  19.5546  27.0251  35.0662

          k = 0.0000 0.6000-0.4000 (   484 PWs)   bands (ev):

   -68.3913 -34.7144 -34.4889 -34.3753  13.8450  15.6250  16.7304  18.2585
    19.2840  20.1312  25.1106  34.8038

          k =-0.1000-0.1000 0.4000 (   484 PWs)   bands (ev):

   -68.4162 -34.5543 -34.4426 -34.3983  12.1182  16.2239  16.2952  17.6829
    17.9469  19.2454  33.1390  33.9012

          k =-0.1000-0.2000 0.5000 (   486 PWs)   bands (ev):

   -68.3985 -34.6361 -34.4873 -34.4015  13.5162  15.8462  16.1637  17.8562
    18.6745  19.7441  29.2123  32.0969

          k =-0.1000 0.7000-0.4000 (   483 PWs)   bands (ev):

   -68.3874 -34.6870 -34.5157 -34.4007  14.2269  15.7960  16.1001  18.0743
    19.0290  21.0444  25.8403  31.2443

          k =-0.2000 0.2000 0.2000 (   483 PWs)   bands (ev):

   -68.4308 -34.5357 -34.3771 -34.3771  11.1738  15.9747  15.9747  18.0261
    18.6783  18.6783  34.8495  34.8495

          k =-0.2000 0.8000-0.4000 (   491 PWs)   bands (ev):

   -68.3862 -34.6568 -34.5468 -34.4109  14.5625  15.4642  16.0585  18.0701
    18.8058  21.3870  27.7605  28.3469

          k =-0.2000 0.7000-0.3000 (   484 PWs)   bands (ev):

   -68.3813 -34.6547 -34.5808 -34.4119  14.9513  15.6056  15.6797  18.2920
    18.7762  23.2594  25.2967  27.7061

          k =-0.3000 0.3000 0.2000 (   489 PWs)   bands (ev):

   -68.4138 -34.6158 -34.4254 -34.3804  12.6730  15.6001  15.7294  18.6175
    18.8689  19.0591  30.9462  33.2862

          k = 0.6000-0.6000 0.2000 (   494 PWs)   bands (ev):

   -68.4001 -34.6693 -34.4748 -34.3836  13.8344  15.3421  15.9712  18.6640
    18.9946  20.2583  27.1328  32.2357

          k = 0.6000-0.7000 0.3000 (   490 PWs)   bands (ev):

   -68.4014 -34.6482 -34.4625 -34.4072  14.0086  15.3690  15.4420  18.7269
    18.9612  20.4319  29.3031  29.8810

          k = 0.5000-0.5000 0.2000 (   492 PWs)   bands (ev):

   -68.3947 -34.6869 -34.4956 -34.3844  14.0795  15.2514  16.4359  18.6986
    19.0395  21.1595  25.1302  31.8697

          k = 0.5000-0.6000 0.3000 (   492 PWs)   bands (ev):

   -68.3938 -34.6455 -34.5164 -34.4157  14.5895  15.2282  15.7204  18.8059
    19.0142  22.1912  26.0640  28.8626

          k = 0.4000-0.6000 0.4000 (   490 PWs)   bands (ev):

   -68.3914 -34.5845 -34.5845 -34.4275  14.8612  15.4198  15.4198  18.9341
    18.9341  24.6901  24.6901  26.6809

          k = 0.0000 0.0000 0.4000 (   482 PWs)   bands (ev):

   -68.4186 -34.4961 -34.4392 -34.4392  11.8371  16.6755  16.6755  17.1964
    17.3806  19.2905  35.4260  36.0828

          k = 0.0000-0.1000 0.5000 (   484 PWs)   bands (ev):

   -68.3999 -34.5789 -34.4802 -34.4498  13.1755  16.2369  16.6015  17.2775
    18.0702  19.5985  31.6260  34.0497

          k = 0.0000-0.2000 0.6000 (   482 PWs)   bands (ev):

   -68.3847 -34.6579 -34.5131 -34.4453  14.2226  15.7602  16.4229  17.6601
    18.8664  20.5969  27.5974  32.5624

          k = 0.0000 0.7000-0.3000 (   484 PWs)   bands (ev):

   -68.3789 -34.6884 -34.5255 -34.4436  14.5078  15.7097  16.3499  17.7253
    19.2143  21.9362  25.2379  31.9961

          k =-0.1000-0.1000 0.6000 (   482 PWs)   bands (ev):

   -68.3837 -34.6254 -34.5292 -34.4670  14.2232  15.6691  16.7190  17.5450
    18.5706  20.5161  29.9860  30.2584

          k =-0.1000 0.8000-0.3000 (   485 PWs)   bands (ev):

   -68.3737 -34.6594 -34.5654 -34.4666  14.8195  15.3250  16.5176  17.9179
    18.9399  22.5110  26.3973  29.1916

          k =-0.2000 0.8000-0.2000 (   481 PWs)   bands (ev):

   -68.3693 -34.6255 -34.6255 -34.4684  15.1320  15.1320  16.3105  18.5733
    18.5733  25.1556  25.1556  26.7125

          k = 0.6000-0.6000 0.4000 (   489 PWs)   bands (ev):

   -68.3948 -34.6291 -34.4717 -34.4717  14.9900  15.1883  15.1883  18.9836
    18.9836  22.2431  28.2418  28.2418

          k = 0.5000-0.5000 0.4000 (   484 PWs)   bands (ev):

   -68.3921 -34.5910 -34.5269 -34.4747  15.0391  15.1367  15.4518  19.0039
    19.0644  24.2412  25.6436  27.8860

          k = 0.0000 0.0000 0.6000 (   486 PWs)   bands (ev):

   -68.3830 -34.5796 -34.5228 -34.5228  14.0657  15.8149  17.2807  17.2807
    18.1490  20.2620  31.7840  31.7840

          k = 0.0000-0.1000 0.7000 (   483 PWs)   bands (ev):

   -68.3690 -34.6303 -34.5576 -34.5304  14.6045  15.2217  17.4270  17.7091
    18.7666  21.8274  28.4250  30.1143

          k = 0.0000 0.8000-0.2000 (   480 PWs)   bands (ev):

   -68.3636 -34.6562 -34.5708 -34.5266  14.8022  14.9563  17.4112  17.8396
    19.1289  23.9060  25.6026  29.4661

          k =-0.1000 0.9000-0.2000 (   476 PWs)   bands (ev):

   -68.3596 -34.6360 -34.6020 -34.5394  14.7269  14.8438  17.5063  18.4072
    18.9188  24.1137  27.1384  27.5202

          k = 0.0000 0.0000 0.8000 (   486 PWs)   bands (ev):

   -68.3564 -34.6144 -34.5935 -34.5935  14.5380  14.7501  18.3415  18.3415
    18.7870  23.5702  28.2645  28.2645

          k = 0.0000 0.9000-0.1000 (   482 PWs)   bands (ev):

   -68.3513 -34.6303 -34.6071 -34.5947  14.5061  14.5253  18.5089  18.6316
    19.0603  25.7787  26.2612  27.5233

          k = 0.0000 0.0000-1.0000 (   490 PWs)   bands (ev):

   -68.3469 -34.6209 -34.6209 -34.6209  14.3573  14.3573  19.0342  19.0342
    19.0342  26.7234  26.7234  26.7234

     the Fermi energy is    16.9742 ev

!    total energy              =    -329.26120686 Ry
     Harris-Foulkes estimate   =    -329.26120684 Ry
     estimated scf accuracy    <          4.2E-09 Ry

     total all-electron energy =     -2545.557742 Ry

     The total energy is the sum of the following terms:

     one-electron contribution =    -115.04613760 Ry
     hartree contribution      =      67.34866383 Ry
     xc contribution           =     -34.78537076 Ry
     ewald contribution        =    -170.63072585 Ry
     one-center paw contrib.   =     -76.14942742 Ry
     smearing contrib. (-TS)   =       0.00179094 Ry

     total magnetization       =     2.12 Bohr mag/cell
     absolute magnetization    =     2.26 Bohr mag/cell

     convergence has been achieved in  17 iterations

     Forces acting on atoms (Ry/au):


     negative rho (up, down):  0.000E+00 1.787E-04
     atom    1 type  1   force =     0.00000000    0.00000000    0.00000000

     Total force =     0.000000     Total SCF correction =     0.000000


     entering subroutine stress ...


     negative rho (up, down):  0.000E+00 1.787E-04
          total   stress  (Ry/bohr**3)                   (kbar)     P= -198.90
  -0.00135209  -0.00000000  -0.00000000       -198.90     -0.00     -0.00
  -0.00000000  -0.00135209  -0.00000000         -0.00   -198.90     -0.00
  -0.00000000  -0.00000000  -0.00135209         -0.00     -0.00   -198.90


     Writing output data file Fe_bcc.save

     init_run     :      1.73s CPU      1.79s WALL (       1 calls)
     electrons    :     40.22s CPU     40.63s WALL (       1 calls)
     forces       :      0.16s CPU      0.17s WALL (       1 calls)
     stress       :      0.58s CPU      0.60s WALL (       1 calls)

     Called by init_run:
     wfcinit      :      0.75s CPU      0.76s WALL (       1 calls)
     potinit      :      0.48s CPU      0.49s WALL (       1 calls)

     Called by electrons:
     c_bands      :     26.67s CPU     26.80s WALL (      17 calls)
     sum_band     :      4.91s CPU      4.99s WALL (      17 calls)
     v_of_rho     :      0.38s CPU      0.39s WALL (      18 calls)
     newd         :      0.28s CPU      0.29s WALL (      18 calls)
     mix_rho      :      0.05s CPU      0.05s WALL (      17 calls)

     Called by c_bands:
     init_us_2    :      0.60s CPU      0.61s WALL (    3478 calls)
     cegterg      :     25.49s CPU     25.60s WALL (    1598 calls)

     Called by *egterg:
     h_psi        :     21.82s CPU     22.02s WALL (    4936 calls)
     s_psi        :      0.55s CPU      0.47s WALL (    4936 calls)
     g_psi        :      0.13s CPU      0.13s WALL (    3244 calls)
     cdiaghg      :      1.36s CPU      1.37s WALL (    4842 calls)

     Called by h_psi:
     add_vuspsi   :      0.56s CPU      0.49s WALL (    4936 calls)

     General routines
     calbec       :      0.64s CPU      0.65s WALL (    6722 calls)
     fft          :      0.20s CPU      0.20s WALL (     592 calls)
     ffts         :      0.02s CPU      0.02s WALL (      70 calls)
     fftw         :     22.32s CPU     22.55s WALL (  113546 calls)
     interpolate  :      0.05s CPU      0.05s WALL (      70 calls)
     davcio       :      0.00s CPU      0.00s WALL (      94 calls)


     PAW routines
     PAW_pot      :      8.37s CPU      8.55s WALL (      18 calls)
     PAW_symme    :      0.02s CPU      0.02s WALL (      35 calls)

     PWSCF        :    43.24s CPU        43.82s WALL


   This run was terminated on:  10:32: 5  11May2015            

=------------------------------------------------------------------------------=
   JOB DONE.
=------------------------------------------------------------------------------=
