
     Program PWSCF v.5.1.2 starts on 11May2015 at 10:29:33 

     This program is part of the open-source Quantum ESPRESSO suite
     for quantum simulation of materials; please cite
         "P. Giannozzi et al., J. Phys.:Condens. Matter 21 395502 (2009);
          URL http://www.quantum-espresso.org", 
     in publications or presentations arising from this work. More details at
     http://www.quantum-espresso.org/quote

     Serial version
     Reading input from Fe_bcc_5.43_10.pw.in

     Current dimensions of program PWSCF are:
     Max number of different atomic species (ntypx) = 10
     Max number of k-points (npk) =  40000
     Max angular momentum in pseudopotentials (lmaxx) =  3
               file Fe.pbe-spn-kjpaw_psl.0.2.1.UPF: wavefunction(s)  3D renormalized

     G-vector sticks info
     --------------------
     sticks:   dense  smooth     PW     G-vecs:    dense   smooth      PW
     Sum         411     333    117                 5425     3805     767

     Generating pointlists ...
     new r_m :   0.3572 (alat units)  1.9398 (a.u.) for type    1


     bravais-lattice index     =            3
     lattice parameter (alat)  =       5.4300  a.u.
     unit-cell volume          =      80.0515 (a.u.)^3
     number of atoms/cell      =            1
     number of atomic types    =            1
     number of electrons       =        16.00
     number of Kohn-Sham states=           12
     kinetic-energy cutoff     =      50.0000  Ry
     charge density cutoff     =     250.0000  Ry
     convergence threshold     =      1.0E-08
     mixing beta               =       0.7000
     number of iterations used =            8  plain     mixing
     Exchange-correlation      =  SLA  PW   PBX  PBC ( 1  4  3  4 0 0)

     celldm(1)=   5.430000  celldm(2)=   0.000000  celldm(3)=   0.000000
     celldm(4)=   0.000000  celldm(5)=   0.000000  celldm(6)=   0.000000

     crystal axes: (cart. coord. in units of alat)
               a(1) = (   0.500000   0.500000   0.500000 )  
               a(2) = (  -0.500000   0.500000   0.500000 )  
               a(3) = (  -0.500000  -0.500000   0.500000 )  

     reciprocal axes: (cart. coord. in units 2 pi/alat)
               b(1) = (  1.000000  0.000000  1.000000 )  
               b(2) = ( -1.000000  1.000000  0.000000 )  
               b(3) = (  0.000000 -1.000000  1.000000 )  


     PseudoPot. # 1 for Fe read from file:
     ./Fe.pbe-spn-kjpaw_psl.0.2.1.UPF
     MD5 check sum: a0a08122d52b112de96d1da1d7dd020f
     Pseudo is Projector augmented-wave + core cor, Zval = 16.0
     Generated using "atomic" code by A. Dal Corso  v.5.0.2 svn rev. 9415
     Shape of augmentation charge: PSQ
     Using radial grid of 1191 points,  6 beta functions with: 
                l(1) =   0
                l(2) =   0
                l(3) =   1
                l(4) =   1
                l(5) =   2
                l(6) =   2
     Q(r) pseudized with 0 coefficients 


     atomic species   valence    mass     pseudopotential
        Fe            16.00    55.85000     Fe( 1.00)

     Starting magnetic structure 
     atomic species   magnetization
        Fe           0.700

     48 Sym. Ops., with inversion, found



   Cartesian axes

     site n.     atom                  positions (alat units)
         1           Fe  tau(   1) = (   0.0000000   0.0000000   0.0000000  )

     number of k points=    94  Marzari-Vanderbilt smearing, width (Ry)=  0.0250
                       cart. coord. in units 2pi/alat
        k(    1) = (   0.0000000   0.0000000   0.0000000), wk =   0.0010000
        k(    2) = (   0.0000000  -0.1000000   0.1000000), wk =   0.0120000
        k(    3) = (   0.0000000  -0.2000000   0.2000000), wk =   0.0120000
        k(    4) = (   0.0000000  -0.3000000   0.3000000), wk =   0.0120000
        k(    5) = (   0.0000000  -0.4000000   0.4000000), wk =   0.0120000
        k(    6) = (   0.0000000   0.5000000  -0.5000000), wk =   0.0060000
        k(    7) = (  -0.1000000  -0.1000000   0.2000000), wk =   0.0240000
        k(    8) = (  -0.1000000  -0.2000000   0.3000000), wk =   0.0480000
        k(    9) = (  -0.1000000  -0.3000000   0.4000000), wk =   0.0480000
        k(   10) = (  -0.1000000   0.6000000  -0.5000000), wk =   0.0480000
        k(   11) = (  -0.2000000  -0.2000000   0.4000000), wk =   0.0240000
        k(   12) = (  -0.2000000   0.7000000  -0.5000000), wk =   0.0480000
        k(   13) = (  -0.2000000   0.6000000  -0.4000000), wk =   0.0240000
        k(   14) = (  -0.3000000   0.7000000  -0.4000000), wk =   0.0240000
        k(   15) = (   0.0000000   0.0000000   0.2000000), wk =   0.0060000
        k(   16) = (   0.0000000  -0.1000000   0.3000000), wk =   0.0240000
        k(   17) = (   0.0000000  -0.2000000   0.4000000), wk =   0.0240000
        k(   18) = (   0.0000000  -0.3000000   0.5000000), wk =   0.0240000
        k(   19) = (   0.0000000   0.6000000  -0.4000000), wk =   0.0120000
        k(   20) = (  -0.1000000  -0.1000000   0.4000000), wk =   0.0240000
        k(   21) = (  -0.1000000  -0.2000000   0.5000000), wk =   0.0480000
        k(   22) = (  -0.1000000   0.7000000  -0.4000000), wk =   0.0480000
        k(   23) = (  -0.2000000   0.2000000   0.2000000), wk =   0.0080000
        k(   24) = (  -0.2000000   0.8000000  -0.4000000), wk =   0.0240000
        k(   25) = (  -0.2000000   0.7000000  -0.3000000), wk =   0.0240000
        k(   26) = (  -0.3000000   0.3000000   0.2000000), wk =   0.0240000
        k(   27) = (   0.6000000  -0.6000000   0.2000000), wk =   0.0240000
        k(   28) = (   0.6000000  -0.7000000   0.3000000), wk =   0.0240000
        k(   29) = (   0.5000000  -0.5000000   0.2000000), wk =   0.0120000
        k(   30) = (   0.5000000  -0.6000000   0.3000000), wk =   0.0480000
        k(   31) = (   0.4000000  -0.6000000   0.4000000), wk =   0.0080000
        k(   32) = (   0.0000000   0.0000000   0.4000000), wk =   0.0060000
        k(   33) = (   0.0000000  -0.1000000   0.5000000), wk =   0.0240000
        k(   34) = (   0.0000000  -0.2000000   0.6000000), wk =   0.0240000
        k(   35) = (   0.0000000   0.7000000  -0.3000000), wk =   0.0120000
        k(   36) = (  -0.1000000  -0.1000000   0.6000000), wk =   0.0240000
        k(   37) = (  -0.1000000   0.8000000  -0.3000000), wk =   0.0480000
        k(   38) = (  -0.2000000   0.8000000  -0.2000000), wk =   0.0080000
        k(   39) = (   0.6000000  -0.6000000   0.4000000), wk =   0.0080000
        k(   40) = (   0.5000000  -0.5000000   0.4000000), wk =   0.0120000
        k(   41) = (   0.0000000   0.0000000   0.6000000), wk =   0.0060000
        k(   42) = (   0.0000000  -0.1000000   0.7000000), wk =   0.0240000
        k(   43) = (   0.0000000   0.8000000  -0.2000000), wk =   0.0120000
        k(   44) = (  -0.1000000   0.9000000  -0.2000000), wk =   0.0240000
        k(   45) = (   0.0000000   0.0000000   0.8000000), wk =   0.0060000
        k(   46) = (   0.0000000   0.9000000  -0.1000000), wk =   0.0120000
        k(   47) = (   0.0000000   0.0000000  -1.0000000), wk =   0.0010000
        k(   48) = (   0.0000000   0.0000000   0.0000000), wk =   0.0010000
        k(   49) = (   0.0000000  -0.1000000   0.1000000), wk =   0.0120000
        k(   50) = (   0.0000000  -0.2000000   0.2000000), wk =   0.0120000
        k(   51) = (   0.0000000  -0.3000000   0.3000000), wk =   0.0120000
        k(   52) = (   0.0000000  -0.4000000   0.4000000), wk =   0.0120000
        k(   53) = (   0.0000000   0.5000000  -0.5000000), wk =   0.0060000
        k(   54) = (  -0.1000000  -0.1000000   0.2000000), wk =   0.0240000
        k(   55) = (  -0.1000000  -0.2000000   0.3000000), wk =   0.0480000
        k(   56) = (  -0.1000000  -0.3000000   0.4000000), wk =   0.0480000
        k(   57) = (  -0.1000000   0.6000000  -0.5000000), wk =   0.0480000
        k(   58) = (  -0.2000000  -0.2000000   0.4000000), wk =   0.0240000
        k(   59) = (  -0.2000000   0.7000000  -0.5000000), wk =   0.0480000
        k(   60) = (  -0.2000000   0.6000000  -0.4000000), wk =   0.0240000
        k(   61) = (  -0.3000000   0.7000000  -0.4000000), wk =   0.0240000
        k(   62) = (   0.0000000   0.0000000   0.2000000), wk =   0.0060000
        k(   63) = (   0.0000000  -0.1000000   0.3000000), wk =   0.0240000
        k(   64) = (   0.0000000  -0.2000000   0.4000000), wk =   0.0240000
        k(   65) = (   0.0000000  -0.3000000   0.5000000), wk =   0.0240000
        k(   66) = (   0.0000000   0.6000000  -0.4000000), wk =   0.0120000
        k(   67) = (  -0.1000000  -0.1000000   0.4000000), wk =   0.0240000
        k(   68) = (  -0.1000000  -0.2000000   0.5000000), wk =   0.0480000
        k(   69) = (  -0.1000000   0.7000000  -0.4000000), wk =   0.0480000
        k(   70) = (  -0.2000000   0.2000000   0.2000000), wk =   0.0080000
        k(   71) = (  -0.2000000   0.8000000  -0.4000000), wk =   0.0240000
        k(   72) = (  -0.2000000   0.7000000  -0.3000000), wk =   0.0240000
        k(   73) = (  -0.3000000   0.3000000   0.2000000), wk =   0.0240000
        k(   74) = (   0.6000000  -0.6000000   0.2000000), wk =   0.0240000
        k(   75) = (   0.6000000  -0.7000000   0.3000000), wk =   0.0240000
        k(   76) = (   0.5000000  -0.5000000   0.2000000), wk =   0.0120000
        k(   77) = (   0.5000000  -0.6000000   0.3000000), wk =   0.0480000
        k(   78) = (   0.4000000  -0.6000000   0.4000000), wk =   0.0080000
        k(   79) = (   0.0000000   0.0000000   0.4000000), wk =   0.0060000
        k(   80) = (   0.0000000  -0.1000000   0.5000000), wk =   0.0240000
        k(   81) = (   0.0000000  -0.2000000   0.6000000), wk =   0.0240000
        k(   82) = (   0.0000000   0.7000000  -0.3000000), wk =   0.0120000
        k(   83) = (  -0.1000000  -0.1000000   0.6000000), wk =   0.0240000
        k(   84) = (  -0.1000000   0.8000000  -0.3000000), wk =   0.0480000
        k(   85) = (  -0.2000000   0.8000000  -0.2000000), wk =   0.0080000
        k(   86) = (   0.6000000  -0.6000000   0.4000000), wk =   0.0080000
        k(   87) = (   0.5000000  -0.5000000   0.4000000), wk =   0.0120000
        k(   88) = (   0.0000000   0.0000000   0.6000000), wk =   0.0060000
        k(   89) = (   0.0000000  -0.1000000   0.7000000), wk =   0.0240000
        k(   90) = (   0.0000000   0.8000000  -0.2000000), wk =   0.0120000
        k(   91) = (  -0.1000000   0.9000000  -0.2000000), wk =   0.0240000
        k(   92) = (   0.0000000   0.0000000   0.8000000), wk =   0.0060000
        k(   93) = (   0.0000000   0.9000000  -0.1000000), wk =   0.0120000
        k(   94) = (   0.0000000   0.0000000  -1.0000000), wk =   0.0010000

     Dense  grid:     5425 G-vectors     FFT dimensions: (  24,  24,  24)

     Smooth grid:     3805 G-vectors     FFT dimensions: (  24,  24,  24)

     Largest allocated arrays     est. size (Mb)     dimensions
        Kohn-Sham Wavefunctions         0.09 Mb     (     490,   12)
        NL pseudopotentials             0.13 Mb     (     490,   18)
        Each V/rho on FFT grid          0.42 Mb     (   13824,   2)
        Each G-vector array             0.04 Mb     (    5425)
        G-vector shells                 0.00 Mb     (      88)
     Largest temporary arrays     est. size (Mb)     dimensions
        Auxiliary wavefunctions         0.36 Mb     (     490,   48)
        Each subspace H/S matrix        0.04 Mb     (      48,   48)
        Each <psi_i|beta_j> matrix      0.00 Mb     (      18,   12)
        Arrays for rho mixing           1.69 Mb     (   13824,    8)

     Check: negative/imaginary core charge=   -0.000432    0.000000

     Initial potential from superposition of free atoms

     starting charge   15.99956, renormalised to   16.00000
     Starting wfc are   13 randomized atomic wfcs

     total cpu time spent up to now is        2.2 secs

     Self-consistent Calculation

     iteration #  1     ecut=    50.00 Ry     beta=0.70
     Davidson diagonalization with overlap
     ethr =  1.00E-02,  avg # of iterations =  3.2

     negative rho (up, down):  0.000E+00 3.476E-04

     Magnetic moment per site:
     atom:    1    charge:   14.2979    magn:    5.6976    constr:    0.0000

     total cpu time spent up to now is        4.9 secs

     total energy              =    -328.99281912 Ry
     Harris-Foulkes estimate   =    -328.06572968 Ry
     estimated scf accuracy    <       1.50900519 Ry

     total magnetization       =     3.84 Bohr mag/cell
     absolute magnetization    =     3.88 Bohr mag/cell

     iteration #  2     ecut=    50.00 Ry     beta=0.70
     Davidson diagonalization with overlap
     ethr =  9.43E-03,  avg # of iterations =  1.2

     negative rho (up, down):  0.000E+00 3.773E-04

     Magnetic moment per site:
     atom:    1    charge:   14.5226    magn:    3.5089    constr:    0.0000

     total cpu time spent up to now is        7.2 secs

     total energy              =    -329.16105076 Ry
     Harris-Foulkes estimate   =    -329.10241156 Ry
     estimated scf accuracy    <       0.34118500 Ry

     total magnetization       =     3.09 Bohr mag/cell
     absolute magnetization    =     3.21 Bohr mag/cell

     iteration #  3     ecut=    50.00 Ry     beta=0.70
     Davidson diagonalization with overlap
     ethr =  2.13E-03,  avg # of iterations =  2.1

     negative rho (up, down):  0.000E+00 3.879E-04

     Magnetic moment per site:
     atom:    1    charge:   14.4073    magn:    2.5498    constr:    0.0000

     total cpu time spent up to now is        9.7 secs

     total energy              =    -329.18095944 Ry
     Harris-Foulkes estimate   =    -329.34244580 Ry
     estimated scf accuracy    <       0.46047541 Ry

     total magnetization       =     2.58 Bohr mag/cell
     absolute magnetization    =     2.72 Bohr mag/cell

     iteration #  4     ecut=    50.00 Ry     beta=0.70
     Davidson diagonalization with overlap
     ethr =  2.13E-03,  avg # of iterations =  2.1

     negative rho (up, down):  0.000E+00 2.235E-04

     Magnetic moment per site:
     atom:    1    charge:   14.4450    magn:    2.2900    constr:    0.0000

     total cpu time spent up to now is       12.0 secs

     total energy              =    -329.25762398 Ry
     Harris-Foulkes estimate   =    -329.25699113 Ry
     estimated scf accuracy    <       0.00214694 Ry

     total magnetization       =     2.35 Bohr mag/cell
     absolute magnetization    =     2.53 Bohr mag/cell

     iteration #  5     ecut=    50.00 Ry     beta=0.70
     Davidson diagonalization with overlap
     ethr =  1.34E-05,  avg # of iterations =  3.4

     negative rho (up, down):  0.000E+00 2.198E-04

     Magnetic moment per site:
     atom:    1    charge:   14.4360    magn:    2.2652    constr:    0.0000

     total cpu time spent up to now is       14.8 secs

     total energy              =    -329.26163077 Ry
     Harris-Foulkes estimate   =    -329.26123656 Ry
     estimated scf accuracy    <       0.00054909 Ry

     total magnetization       =     2.17 Bohr mag/cell
     absolute magnetization    =     2.33 Bohr mag/cell

     iteration #  6     ecut=    50.00 Ry     beta=0.70
     Davidson diagonalization with overlap
     ethr =  3.43E-06,  avg # of iterations =  1.1

     negative rho (up, down):  0.000E+00 9.875E-05

     Magnetic moment per site:
     atom:    1    charge:   14.4199    magn:    2.0110    constr:    0.0000

     total cpu time spent up to now is       16.9 secs

     total energy              =    -329.25982855 Ry
     Harris-Foulkes estimate   =    -329.26169493 Ry
     estimated scf accuracy    <       0.00036024 Ry

     total magnetization       =     2.15 Bohr mag/cell
     absolute magnetization    =     2.30 Bohr mag/cell

     iteration #  7     ecut=    50.00 Ry     beta=0.70
     Davidson diagonalization with overlap
     ethr =  2.25E-06,  avg # of iterations =  2.5

     negative rho (up, down):  0.000E+00 1.733E-04

     Magnetic moment per site:
     atom:    1    charge:   14.4283    magn:    2.1869    constr:    0.0000

     total cpu time spent up to now is       19.8 secs

     total energy              =    -329.26183356 Ry
     Harris-Foulkes estimate   =    -329.26100484 Ry
     estimated scf accuracy    <       0.00076022 Ry

     total magnetization       =     2.07 Bohr mag/cell
     absolute magnetization    =     2.19 Bohr mag/cell

     iteration #  8     ecut=    50.00 Ry     beta=0.70
     Davidson diagonalization with overlap
     ethr =  2.25E-06,  avg # of iterations =  2.0

     negative rho (up, down):  0.000E+00 1.740E-04

     Magnetic moment per site:
     atom:    1    charge:   14.4299    magn:    2.1882    constr:    0.0000

     total cpu time spent up to now is       22.0 secs

     total energy              =    -329.26215784 Ry
     Harris-Foulkes estimate   =    -329.26215003 Ry
     estimated scf accuracy    <       0.00001846 Ry

     total magnetization       =     2.12 Bohr mag/cell
     absolute magnetization    =     2.25 Bohr mag/cell

     iteration #  9     ecut=    50.00 Ry     beta=0.70
     Davidson diagonalization with overlap
     ethr =  1.15E-07,  avg # of iterations =  2.0

     negative rho (up, down):  0.000E+00 1.731E-04

     Magnetic moment per site:
     atom:    1    charge:   14.4300    magn:    2.1822    constr:    0.0000

     total cpu time spent up to now is       24.3 secs

     total energy              =    -329.26217058 Ry
     Harris-Foulkes estimate   =    -329.26216149 Ry
     estimated scf accuracy    <       0.00001339 Ry

     total magnetization       =     2.11 Bohr mag/cell
     absolute magnetization    =     2.25 Bohr mag/cell

     iteration # 10     ecut=    50.00 Ry     beta=0.70
     Davidson diagonalization with overlap
     ethr =  8.37E-08,  avg # of iterations =  1.0

     negative rho (up, down):  0.000E+00 1.675E-04

     Magnetic moment per site:
     atom:    1    charge:   14.4293    magn:    2.1670    constr:    0.0000

     total cpu time spent up to now is       26.4 secs

     total energy              =    -329.26217542 Ry
     Harris-Foulkes estimate   =    -329.26217134 Ry
     estimated scf accuracy    <       0.00000741 Ry

     total magnetization       =     2.11 Bohr mag/cell
     absolute magnetization    =     2.25 Bohr mag/cell

     iteration # 11     ecut=    50.00 Ry     beta=0.70
     Davidson diagonalization with overlap
     ethr =  4.63E-08,  avg # of iterations =  1.5

     negative rho (up, down):  0.000E+00 1.677E-04

     Magnetic moment per site:
     atom:    1    charge:   14.4293    magn:    2.1671    constr:    0.0000

     total cpu time spent up to now is       28.6 secs

     total energy              =    -329.26217855 Ry
     Harris-Foulkes estimate   =    -329.26217821 Ry
     estimated scf accuracy    <       0.00000005 Ry

     total magnetization       =     2.11 Bohr mag/cell
     absolute magnetization    =     2.24 Bohr mag/cell

     iteration # 12     ecut=    50.00 Ry     beta=0.70
     Davidson diagonalization with overlap
     ethr =  3.28E-10,  avg # of iterations =  3.1

     negative rho (up, down):  0.000E+00 1.678E-04

     Magnetic moment per site:
     atom:    1    charge:   14.4293    magn:    2.1671    constr:    0.0000

     total cpu time spent up to now is       31.4 secs

     total energy              =    -329.26217858 Ry
     Harris-Foulkes estimate   =    -329.26217858 Ry
     estimated scf accuracy    <       0.00000009 Ry

     total magnetization       =     2.11 Bohr mag/cell
     absolute magnetization    =     2.24 Bohr mag/cell

     iteration # 13     ecut=    50.00 Ry     beta=0.70
     Davidson diagonalization with overlap
     ethr =  3.28E-10,  avg # of iterations =  1.0

     negative rho (up, down):  0.000E+00 1.673E-04

     Magnetic moment per site:
     atom:    1    charge:   14.4292    magn:    2.1663    constr:    0.0000

     total cpu time spent up to now is       33.5 secs

     total energy              =    -329.26217866 Ry
     Harris-Foulkes estimate   =    -329.26217858 Ry
     estimated scf accuracy    <       0.00000010 Ry

     total magnetization       =     2.11 Bohr mag/cell
     absolute magnetization    =     2.24 Bohr mag/cell

     iteration # 14     ecut=    50.00 Ry     beta=0.70
     Davidson diagonalization with overlap
     ethr =  3.28E-10,  avg # of iterations =  1.4

     negative rho (up, down):  0.000E+00 1.669E-04

     Magnetic moment per site:
     atom:    1    charge:   14.4292    magn:    2.1655    constr:    0.0000

     total cpu time spent up to now is       35.6 secs

     total energy              =    -329.26217867 Ry
     Harris-Foulkes estimate   =    -329.26217868 Ry
     estimated scf accuracy    <       0.00000002 Ry

     total magnetization       =     2.11 Bohr mag/cell
     absolute magnetization    =     2.24 Bohr mag/cell

     iteration # 15     ecut=    50.00 Ry     beta=0.70
     Davidson diagonalization with overlap
     ethr =  1.23E-10,  avg # of iterations =  2.0

     negative rho (up, down):  0.000E+00 1.671E-04

     Magnetic moment per site:
     atom:    1    charge:   14.4292    magn:    2.1656    constr:    0.0000

     total cpu time spent up to now is       38.1 secs

     End of self-consistent calculation

 ------ SPIN UP ------------


          k = 0.0000 0.0000 0.0000 (   459 PWs)   bands (ev):

   -70.7014 -36.5297 -36.5297 -36.5297   9.0712  15.1992  15.1992  15.1992
    16.1406  16.1406  41.8195  41.8195

          k = 0.0000-0.1000 0.1000 (   477 PWs)   bands (ev):

   -70.6958 -36.5664 -36.5421 -36.5305   9.4695  15.0942  15.1824  15.4088
    16.0518  16.1495  39.3922  41.1237

          k = 0.0000-0.2000 0.2000 (   483 PWs)   bands (ev):

   -70.6797 -36.6564 -36.5731 -36.5314  10.5771  14.8264  15.0502  15.9856
    15.9988  16.1801  34.9786  39.1340

          k = 0.0000-0.3000 0.3000 (   479 PWs)   bands (ev):

   -70.6592 -36.7667 -36.6100 -36.5311  11.9467  14.5083  15.1340  16.1509
    16.2334  16.7662  30.3865  37.1285

          k = 0.0000-0.4000 0.4000 (   476 PWs)   bands (ev):

   -70.6427 -36.8545 -36.6399 -36.5312  12.5606  14.2605  16.0904  16.2898
    16.6962  17.4684  26.3563  35.7688

          k = 0.0000 0.5000-0.5000 (   476 PWs)   bands (ev):

   -70.6365 -36.8875 -36.6512 -36.5312  12.6081  14.1680  16.2713  16.3146
    17.7578  17.8656  24.3081  35.2911

          k =-0.1000-0.1000 0.2000 (   483 PWs)   bands (ev):

   -70.6848 -36.6287 -36.5553 -36.5398  10.2289  14.9630  15.0112  15.8458
    15.9407  16.2037  36.9741  38.1334

          k =-0.1000-0.2000 0.3000 (   482 PWs)   bands (ev):

   -70.6664 -36.7223 -36.5919 -36.5435  11.5411  14.6610  14.8261  15.9681
    16.2888  16.6252  32.8225  35.8287

          k =-0.1000-0.3000 0.4000 (   476 PWs)   bands (ev):

   -70.6478 -36.8136 -36.6320 -36.5438  12.6127  14.3800  15.1561  16.1781
    16.4196  17.6351  28.4293  34.3312

          k =-0.1000 0.6000-0.5000 (   481 PWs)   bands (ev):

   -70.6367 -36.8695 -36.6579 -36.5442  12.8015  14.2233  15.8057  16.2542
    16.9103  18.9071  24.9913  33.4964

          k =-0.2000-0.2000 0.4000 (   481 PWs)   bands (ev):

   -70.6499 -36.7887 -36.6288 -36.5590  12.7445  14.3507  14.7124  16.0282
    16.4290  17.7718  30.8099  31.5854

          k =-0.2000 0.7000-0.5000 (   478 PWs)   bands (ev):

   -70.6365 -36.8313 -36.6763 -36.5647  13.3040  14.2232  14.9205  16.2067
    16.6114  19.4933  26.9744  30.0851

          k =-0.2000 0.6000-0.4000 (   474 PWs)   bands (ev):

   -70.6313 -36.8440 -36.6980 -36.5658  13.3042  14.2361  15.0890  16.2774
    16.7815  21.0815  24.5265  29.6569

          k =-0.3000 0.7000-0.4000 (   482 PWs)   bands (ev):

   -70.6296 -36.8095 -36.7395 -36.5749  13.7805  14.1604  14.6006  16.3916
    16.6196  22.1070  25.4800  26.8881

          k = 0.0000 0.0000 0.2000 (   478 PWs)   bands (ev):

   -70.6898 -36.5751 -36.5544 -36.5544   9.8592  15.2068  15.2068  15.4108
    15.8059  16.2714  38.5837  40.4535

          k = 0.0000-0.1000 0.3000 (   479 PWs)   bands (ev):

   -70.6738 -36.6560 -36.5853 -36.5593  10.9273  15.0187  15.0685  15.6639
    15.9342  16.3985  35.2061  38.1981

          k = 0.0000-0.2000 0.4000 (   474 PWs)   bands (ev):

   -70.6538 -36.7615 -36.6229 -36.5577  12.2300  14.7278  14.8230  15.9679
    16.6555  16.7214  30.6711  36.4665

          k = 0.0000-0.3000 0.5000 (   480 PWs)   bands (ev):

   -70.6381 -36.8469 -36.6536 -36.5565  12.7940  14.4974  15.1121  16.1369
    17.4367  17.8150  26.5595  35.4283

          k = 0.0000 0.6000-0.4000 (   484 PWs)   bands (ev):

   -70.6322 -36.8791 -36.6654 -36.5560  12.8207  14.4110  15.3493  16.1153
    17.7330  19.1071  24.3671  34.8817

          k =-0.1000-0.1000 0.4000 (   470 PWs)   bands (ev):

   -70.6561 -36.7256 -36.6199 -36.5775  12.0925  14.6548  15.0560  15.6716
    16.4453  16.7796  33.0497  33.9742

          k =-0.1000-0.2000 0.5000 (   475 PWs)   bands (ev):

   -70.6388 -36.8043 -36.6627 -36.5805  13.0255  14.3355  14.9328  15.9739
    16.8526  18.0492  28.9426  32.0707

          k =-0.1000 0.7000-0.4000 (   477 PWs)   bands (ev):

   -70.6281 -36.8527 -36.6904 -36.5802  13.1662  14.5047  14.7666  16.0976
    17.3345  20.0370  25.2736  31.2052

          k =-0.2000 0.2000 0.2000 (   483 PWs)   bands (ev):

   -70.6711 -36.7091 -36.5580 -36.5580  11.2726  14.6742  14.6742  16.1237
    16.1237  16.6418  34.9900  34.9900

          k =-0.2000 0.8000-0.4000 (   473 PWs)   bands (ev):

   -70.6265 -36.8236 -36.7195 -36.5890  13.6501  13.9365  14.7913  16.2556
    16.9624  20.3342  27.3564  28.2113

          k =-0.2000 0.7000-0.3000 (   476 PWs)   bands (ev):

   -70.6219 -36.8223 -36.7520 -36.5908  13.6775  14.1950  14.4400  16.4576
    17.0123  22.5770  24.7237  27.4902

          k =-0.3000 0.3000 0.2000 (   485 PWs)   bands (ev):

   -70.6543 -36.7852 -36.6039 -36.5606  12.6077  14.3753  14.5270  16.1716
    16.2436  17.7394  30.8394  33.4067

          k = 0.6000-0.6000 0.2000 (   488 PWs)   bands (ev):

   -70.6407 -36.8360 -36.6510 -36.5635  13.1381  14.1775  15.2465  16.2765
    16.3063  19.2153  26.7569  32.3671

          k = 0.6000-0.7000 0.3000 (   484 PWs)   bands (ev):

   -70.6420 -36.8159 -36.6391 -36.5862  13.5870  14.1836  14.4531  16.2500
    16.3321  19.3450  29.1297  29.8061

          k = 0.5000-0.5000 0.2000 (   488 PWs)   bands (ev):

   -70.6355 -36.8529 -36.6709 -36.5645  13.1264  14.1089  15.8227  16.3173
    16.3259  20.5079  24.4640  32.0058

          k = 0.5000-0.6000 0.3000 (   484 PWs)   bands (ev):

   -70.6344 -36.8131 -36.6904 -36.5944  13.6662  14.1350  14.9318  16.3315
    16.3856  21.5157  25.6601  28.7621

          k = 0.4000-0.6000 0.4000 (   475 PWs)   bands (ev):

   -70.6317 -36.7546 -36.7546 -36.6054  13.8536  14.4642  14.4642  16.3900
    16.3900  24.2808  24.2808  26.4100

          k = 0.0000 0.0000 0.4000 (   470 PWs)   bands (ev):

   -70.6586 -36.6703 -36.6166 -36.6166  11.8494  14.9195  15.3847  15.3847
    15.9734  16.7255  35.4108  36.1924

          k = 0.0000-0.1000 0.5000 (   475 PWs)   bands (ev):

   -70.6403 -36.7498 -36.6561 -36.6267  12.8488  14.3431  15.3227  15.7392
    16.6240  17.4516  31.4767  34.1111

          k = 0.0000-0.2000 0.6000 (   480 PWs)   bands (ev):

   -70.6255 -36.8256 -36.6879 -36.6231  13.2311  14.1237  15.1625  15.9453
    17.3552  19.2910  27.2190  32.6199

          k = 0.0000 0.7000-0.3000 (   472 PWs)   bands (ev):

   -70.6195 -36.8543 -36.6994 -36.6204  13.1929  14.1907  15.0975  15.9622
    17.6683  21.1560  24.6134  32.0794

          k =-0.1000-0.1000 0.6000 (   476 PWs)   bands (ev):

   -70.6243 -36.7944 -36.7034 -36.6432  13.3545  13.8418  15.3997  16.0675
    17.0134  19.1309  29.7159  30.2095

          k =-0.1000 0.8000-0.3000 (   477 PWs)   bands (ev):

   -70.6145 -36.8269 -36.7375 -36.6431  13.3864  13.7225  15.2423  16.3636
    17.3772  21.7279  25.9853  29.0774

          k =-0.2000 0.8000-0.2000 (   469 PWs)   bands (ev):

   -70.6100 -36.7948 -36.7948 -36.6440  13.5099  13.5099  15.1385  17.0171
    17.0171  24.6456  24.6456  26.5305

          k = 0.6000-0.6000 0.4000 (   483 PWs)   bands (ev):

   -70.6353 -36.7978 -36.6478 -36.6478  14.1356  14.1356  14.4043  16.3323
    16.3323  21.5244  28.0817  28.0817

          k = 0.5000-0.5000 0.4000 (   478 PWs)   bands (ev):

   -70.6326 -36.7613 -36.7002 -36.6510  14.1078  14.1343  14.6220  16.3443
    16.3524  23.8490  25.2734  27.7280

          k = 0.0000 0.0000 0.6000 (   478 PWs)   bands (ev):

   -70.6235 -36.7500 -36.6971 -36.6971  13.2158  13.8248  15.9787  15.9787
    16.6852  18.7367  31.8249  31.8249

          k = 0.0000-0.1000 0.7000 (   475 PWs)   bands (ev):

   -70.6098 -36.7989 -36.7303 -36.7042  13.2361  13.4029  16.1006  16.3211
    17.2626  20.9905  28.2555  30.1840

          k = 0.0000 0.8000-0.2000 (   470 PWs)   bands (ev):

   -70.6044 -36.8243 -36.7424 -36.7001  13.1303  13.3259  16.0822  16.4278
    17.5891  23.4161  25.2319  29.5786

          k =-0.1000 0.9000-0.2000 (   472 PWs)   bands (ev):

   -70.6007 -36.8051 -36.7728 -36.7127  13.0933  13.1049  16.1929  16.9596
    17.3983  23.6764  26.9306  27.4880

          k = 0.0000 0.0000 0.8000 (   482 PWs)   bands (ev):

   -70.5975 -36.7844 -36.7646 -36.7646  12.9335  12.9550  16.9304  16.9304
    17.2737  23.1804  28.3950  28.3950

          k = 0.0000 0.9000-0.1000 (   482 PWs)   bands (ev):

   -70.5927 -36.8000 -36.7779 -36.7660  12.7883  12.8028  17.0579  17.1751
    17.5254  25.6793  26.2489  27.6921

          k = 0.0000 0.0000-1.0000 (   490 PWs)   bands (ev):

   -70.5883 -36.7911 -36.7911 -36.7911  12.6283  12.6283  17.5012  17.5012
    17.5012  26.9603  26.9603  26.9603

 ------ SPIN DOWN ----------


          k = 0.0000 0.0000 0.0000 (   459 PWs)   bands (ev):

   -68.1375 -34.0117 -34.0117 -34.0117   9.2115  16.8679  16.8679  16.8679
    19.1237  19.1237  41.5390  41.5390

          k = 0.0000-0.1000 0.1000 (   477 PWs)   bands (ev):

   -68.1314 -34.0519 -34.0252 -34.0124   9.6123  16.7434  16.8428  17.0950
    18.9907  19.1336  39.4732  41.0023

          k = 0.0000-0.2000 0.2000 (   483 PWs)   bands (ev):

   -68.1138 -34.1521 -34.0590 -34.0133  10.7459  16.4276  16.7134  17.7228
    18.7811  19.1717  35.4320  39.2085

          k = 0.0000-0.3000 0.3000 (   479 PWs)   bands (ev):

   -68.0916 -34.2745 -34.0996 -34.0132  12.3180  16.0560  16.5947  18.5821
    18.7541  19.2450  31.0963  37.2166

          k = 0.0000-0.4000 0.4000 (   476 PWs)   bands (ev):

   -68.0736 -34.3720 -34.1325 -34.0131  13.5201  15.7688  17.1514  18.8463
    19.3274  19.3671  27.3496  35.8184

          k = 0.0000 0.5000-0.5000 (   476 PWs)   bands (ev):

   -68.0668 -34.4087 -34.1447 -34.0132  13.8197  15.6621  17.9340  18.8885
    19.3648  19.6948  25.5781  35.3199

          k =-0.1000-0.1000 0.2000 (   483 PWs)   bands (ev):

   -68.1193 -34.1211 -34.0396 -34.0225  10.3832  16.5854  16.6687  17.5602
    18.7889  19.1857  37.2647  38.3890

          k =-0.1000-0.2000 0.3000 (   482 PWs)   bands (ev):

   -68.0994 -34.2252 -34.0798 -34.0265  11.7738  16.2452  16.4516  18.3680
    18.6512  19.2814  33.3924  36.1815

          k =-0.1000-0.3000 0.4000 (   476 PWs)   bands (ev):

   -68.0792 -34.3266 -34.1239 -34.0270  13.2753  15.9060  16.4775  18.7237
    19.2087  19.5109  29.2397  34.6878

          k =-0.1000 0.6000-0.5000 (   481 PWs)   bands (ev):

   -68.0669 -34.3883 -34.1524 -34.0275  13.9770  15.7115  17.1176  18.8417
    19.3928  20.3303  26.1213  33.8389

          k =-0.2000-0.2000 0.4000 (   481 PWs)   bands (ev):

   -68.0815 -34.2987 -34.1207 -34.0436  13.2049  16.0094  16.1334  18.6107
    19.1764  19.6584  31.4819  32.1382

          k =-0.2000 0.7000-0.5000 (   478 PWs)   bands (ev):

   -68.0669 -34.3458 -34.1733 -34.0500  14.3396  15.7592  16.2193  18.7483
    19.2978  20.9964  27.8380  30.6802

          k =-0.2000 0.6000-0.4000 (   474 PWs)   bands (ev):

   -68.0612 -34.3600 -34.1974 -34.0513  14.5965  15.7077  16.4724  18.8519
    19.3053  22.2011  25.6564  30.2438

          k =-0.3000 0.7000-0.4000 (   482 PWs)   bands (ev):

   -68.0594 -34.3214 -34.2436 -34.0612  15.0607  15.6791  15.9984  18.9188
    19.1838  23.2522  26.4004  27.6399

          k = 0.0000 0.0000 0.2000 (   478 PWs)   bands (ev):

   -68.1247 -34.0622 -34.0385 -34.0385  10.0072  16.8525  16.8525  17.0999
    18.6718  19.2853  38.7022  40.5678

          k = 0.0000-0.1000 0.3000 (   479 PWs)   bands (ev):

   -68.1075 -34.1517 -34.0725 -34.0441  11.1131  16.6288  16.7866  17.6658
    18.2948  19.4061  35.6684  38.4538

          k = 0.0000-0.2000 0.4000 (   474 PWs)   bands (ev):

   -68.0858 -34.2688 -34.1139 -34.0425  12.6420  16.2894  16.5714  18.3009
    18.5312  19.5312  31.3769  36.7314

          k = 0.0000-0.3000 0.5000 (   480 PWs)   bands (ev):

   -68.0686 -34.3632 -34.1475 -34.0412  13.8185  16.0224  16.7169  18.5339
    19.3312  19.9146  27.5268  35.5752

          k = 0.0000 0.6000-0.4000 (   484 PWs)   bands (ev):

   -68.0620 -34.3989 -34.1604 -34.0407  14.1126  15.9226  17.0466  18.5934
    19.6674  20.5027  25.6030  35.3640

          k =-0.1000-0.1000 0.4000 (   470 PWs)   bands (ev):

   -68.0882 -34.2292 -34.1108 -34.0643  12.4145  16.5285  16.6093  18.0003
    18.2984  19.5945  33.6718  34.4693

          k =-0.1000-0.2000 0.5000 (   475 PWs)   bands (ev):

   -68.0694 -34.3160 -34.1579 -34.0676  13.8077  16.1404  16.4732  18.1854
    19.0367  20.1148  29.7299  32.6396

          k =-0.1000 0.7000-0.4000 (   477 PWs)   bands (ev):

   -68.0577 -34.3695 -34.1885 -34.0672  14.5030  16.0955  16.4059  18.4083
    19.3986  21.4472  26.3331  31.7693

          k =-0.2000 0.2000 0.2000 (   483 PWs)   bands (ev):

   -68.1045 -34.2104 -34.0426 -34.0426  11.4579  16.2789  16.2789  18.3797
    19.0119  19.0119  35.3751  35.3751

          k =-0.2000 0.8000-0.4000 (   473 PWs)   bands (ev):

   -68.0561 -34.3371 -34.2209 -34.0768  14.8548  15.7476  16.3671  18.4082
    19.1652  21.8051  28.2550  28.8781

          k =-0.2000 0.7000-0.3000 (   476 PWs)   bands (ev):

   -68.0511 -34.3354 -34.2571 -34.0786  15.2338  15.8960  15.9766  18.6361
    19.1360  23.6941  25.7770  28.2155

          k =-0.3000 0.3000 0.2000 (   485 PWs)   bands (ev):

   -68.0861 -34.2947 -34.0932 -34.0456  12.9671  15.8968  16.0286  18.9530
    19.2067  19.4365  31.4678  33.8063

          k = 0.6000-0.6000 0.2000 (   488 PWs)   bands (ev):

   -68.0713 -34.3511 -34.1451 -34.0487  14.1192  15.6341  16.2861  19.0033
    19.3348  20.6599  27.6334  32.7479

          k = 0.6000-0.7000 0.3000 (   484 PWs)   bands (ev):

   -68.0727 -34.3288 -34.1325 -34.0738  14.3083  15.6608  15.7391  19.0649
    19.3024  20.8378  29.8012  30.4072

          k = 0.5000-0.5000 0.2000 (   488 PWs)   bands (ev):

   -68.0656 -34.3700 -34.1670 -34.0498  14.3536  15.5417  16.7615  19.0396
    19.3805  21.5693  25.6208  32.3740

          k = 0.5000-0.6000 0.3000 (   484 PWs)   bands (ev):

   -68.0645 -34.3257 -34.1892 -34.0828  14.8761  15.5199  16.0337  19.1467
    19.3565  22.6252  26.5537  29.3745

          k = 0.4000-0.6000 0.4000 (   475 PWs)   bands (ev):

   -68.0616 -34.2609 -34.2609 -34.0950  15.1479  15.7236  15.7236  19.2764
    19.2764  25.1559  25.1559  27.1990

          k = 0.0000 0.0000 0.4000 (   470 PWs)   bands (ev):

   -68.0909 -34.1683 -34.1071 -34.1071  12.1296  16.9980  16.9980  17.4941
    17.7183  19.6406  35.9370  36.6750

          k = 0.0000-0.1000 0.5000 (   475 PWs)   bands (ev):

   -68.0711 -34.2558 -34.1505 -34.1186  13.4699  16.5273  16.9220  17.6008
    18.4242  19.9613  32.1576  34.6242

          k = 0.0000-0.2000 0.6000 (   480 PWs)   bands (ev):

   -68.0549 -34.3392 -34.1855 -34.1146  14.5033  16.0430  16.7389  17.9906
    19.2395  20.9858  28.0966  33.1098

          k = 0.0000 0.7000-0.3000 (   472 PWs)   bands (ev):

   -68.0484 -34.3709 -34.1983 -34.1118  14.7779  15.9989  16.6644  18.0555
    19.5960  22.3476  25.7259  32.5448

          k =-0.1000-0.1000 0.6000 (   476 PWs)   bands (ev):

   -68.0537 -34.3047 -34.2027 -34.1367  14.5087  15.9440  17.0405  17.8801
    18.9342  20.9063  30.4960  30.7880

          k =-0.1000 0.8000-0.3000 (   477 PWs)   bands (ev):

   -68.0429 -34.3403 -34.2407 -34.1365  15.0938  15.5990  16.8347  18.2610
    19.3124  22.9383  26.8897  29.7056

          k =-0.2000 0.8000-0.2000 (   469 PWs)   bands (ev):

   -68.0381 -34.3043 -34.3043 -34.1377  15.4015  15.4015  16.6281  18.9349
    18.9349  25.6149  25.6149  27.2343

          k = 0.6000-0.6000 0.4000 (   483 PWs)   bands (ev):

   -68.0656 -34.3086 -34.1422 -34.1422  15.2958  15.4799  15.4799  19.3246
    19.3246  22.6791  28.7317  28.7317

          k = 0.5000-0.5000 0.4000 (   478 PWs)   bands (ev):

   -68.0627 -34.2683 -34.2004 -34.1458  15.3329  15.4274  15.7559  19.3456
    19.4060  24.6931  26.1282  28.3658

          k = 0.0000 0.0000 0.6000 (   478 PWs)   bands (ev):

   -68.0529 -34.2562 -34.1957 -34.1957  14.3500  16.0850  17.6170  17.6170
    18.5046  20.6457  32.3266  32.3266

          k = 0.0000-0.1000 0.7000 (   475 PWs)   bands (ev):

   -68.0379 -34.3094 -34.2324 -34.2040  14.8762  15.4834  17.7663  18.0526
    19.1372  22.2476  28.9298  30.6345

          k = 0.0000 0.8000-0.2000 (   470 PWs)   bands (ev):

   -68.0320 -34.3369 -34.2458 -34.1998  15.0614  15.2202  17.7506  18.1855
    19.5084  24.3409  26.0871  29.9914

          k =-0.1000 0.9000-0.2000 (   472 PWs)   bands (ev):

   -68.0280 -34.3155 -34.2794 -34.2134  14.9856  15.0991  17.8475  18.7680
    19.2925  24.5570  27.6148  28.0114

          k = 0.0000 0.0000 0.8000 (   482 PWs)   bands (ev):

   -68.0245 -34.2928 -34.2701 -34.2701  14.7927  15.0007  18.7023  18.7023
    19.1580  24.0039  28.7606  28.7606

          k = 0.0000 0.9000-0.1000 (   482 PWs)   bands (ev):

   -68.0193 -34.3094 -34.2847 -34.2718  14.7549  14.7730  18.8732  18.9986
    19.4381  26.2299  26.7278  27.9980

          k = 0.0000 0.0000-1.0000 (   490 PWs)   bands (ev):

   -68.0146 -34.2992 -34.2992 -34.2992  14.6010  14.6010  19.4114  19.4114
    19.4114  27.1852  27.1852  27.1852

     the Fermi energy is    17.3353 ev

!    total energy              =    -329.26217871 Ry
     Harris-Foulkes estimate   =    -329.26217869 Ry
     estimated scf accuracy    <          6.1E-09 Ry

     total all-electron energy =     -2545.558714 Ry

     The total energy is the sum of the following terms:

     one-electron contribution =    -113.53635627 Ry
     hartree contribution      =      66.79103259 Ry
     xc contribution           =     -34.79512533 Ry
     ewald contribution        =    -171.57343704 Ry
     one-center paw contrib.   =     -76.14995593 Ry
     smearing contrib. (-TS)   =       0.00166327 Ry

     total magnetization       =     2.11 Bohr mag/cell
     absolute magnetization    =     2.24 Bohr mag/cell

     convergence has been achieved in  15 iterations

     Forces acting on atoms (Ry/au):


     negative rho (up, down):  0.000E+00 1.671E-04
     atom    1 type  1   force =     0.00000000    0.00000000    0.00000000

     Total force =     0.000000     Total SCF correction =     0.000000


     entering subroutine stress ...


     negative rho (up, down):  0.000E+00 1.671E-04
          total   stress  (Ry/bohr**3)                   (kbar)     P= -172.57
  -0.00117308   0.00000000  -0.00000000       -172.57      0.00     -0.00
   0.00000000  -0.00117308   0.00000000          0.00   -172.57      0.00
  -0.00000000   0.00000000  -0.00117308         -0.00      0.00   -172.57


     Writing output data file Fe_bcc.save

     init_run     :      1.74s CPU      1.80s WALL (       1 calls)
     electrons    :     35.61s CPU     35.89s WALL (       1 calls)
     forces       :      0.14s CPU      0.15s WALL (       1 calls)
     stress       :      0.56s CPU      0.57s WALL (       1 calls)

     Called by init_run:
     wfcinit      :      0.72s CPU      0.72s WALL (       1 calls)
     potinit      :      0.51s CPU      0.53s WALL (       1 calls)

     Called by electrons:
     c_bands      :     23.79s CPU     23.85s WALL (      15 calls)
     sum_band     :      4.32s CPU      4.37s WALL (      15 calls)
     v_of_rho     :      0.34s CPU      0.35s WALL (      16 calls)
     newd         :      0.24s CPU      0.25s WALL (      16 calls)
     mix_rho      :      0.04s CPU      0.05s WALL (      15 calls)

     Called by c_bands:
     init_us_2    :      0.52s CPU      0.53s WALL (    3102 calls)
     cegterg      :     22.75s CPU     22.78s WALL (    1410 calls)

     Called by *egterg:
     h_psi        :     19.51s CPU     19.68s WALL (    4294 calls)
     s_psi        :      0.51s CPU      0.42s WALL (    4294 calls)
     g_psi        :      0.11s CPU      0.11s WALL (    2790 calls)
     cdiaghg      :      1.19s CPU      1.21s WALL (    4200 calls)

     Called by h_psi:
     add_vuspsi   :      0.52s CPU      0.44s WALL (    4294 calls)

     General routines
     calbec       :      0.56s CPU      0.57s WALL (    5892 calls)
     fft          :      0.18s CPU      0.19s WALL (     530 calls)
     ffts         :      0.02s CPU      0.02s WALL (      62 calls)
     fftw         :     19.95s CPU     20.15s WALL (   99398 calls)
     interpolate  :      0.05s CPU      0.05s WALL (      62 calls)
     davcio       :      0.00s CPU      0.00s WALL (      94 calls)


     PAW routines
     PAW_pot      :      7.36s CPU      7.52s WALL (      16 calls)
     PAW_symme    :      0.02s CPU      0.02s WALL (      31 calls)

     PWSCF        :    38.58s CPU        39.03s WALL


   This run was terminated on:  10:30:12  11May2015            

=------------------------------------------------------------------------------=
   JOB DONE.
=------------------------------------------------------------------------------=
