
     Program PWSCF v.5.1.2 starts on 11May2015 at 10:42:25 

     This program is part of the open-source Quantum ESPRESSO suite
     for quantum simulation of materials; please cite
         "P. Giannozzi et al., J. Phys.:Condens. Matter 21 395502 (2009);
          URL http://www.quantum-espresso.org", 
     in publications or presentations arising from this work. More details at
     http://www.quantum-espresso.org/quote

     Serial version
     Reading input from Fe_bcc_5.42_12.pw.in

     Current dimensions of program PWSCF are:
     Max number of different atomic species (ntypx) = 10
     Max number of k-points (npk) =  40000
     Max angular momentum in pseudopotentials (lmaxx) =  3
               file Fe.pbe-spn-kjpaw_psl.0.2.1.UPF: wavefunction(s)  3D renormalized

     G-vector sticks info
     --------------------
     sticks:   dense  smooth     PW     G-vecs:    dense   smooth      PW
     Sum         411     333    117                 5425     3805     767

     Generating pointlists ...
     new r_m :   0.3572 (alat units)  1.9362 (a.u.) for type    1


     bravais-lattice index     =            3
     lattice parameter (alat)  =       5.4200  a.u.
     unit-cell volume          =      79.6100 (a.u.)^3
     number of atoms/cell      =            1
     number of atomic types    =            1
     number of electrons       =        16.00
     number of Kohn-Sham states=           12
     kinetic-energy cutoff     =      50.0000  Ry
     charge density cutoff     =     250.0000  Ry
     convergence threshold     =      1.0E-08
     mixing beta               =       0.7000
     number of iterations used =            8  plain     mixing
     Exchange-correlation      =  SLA  PW   PBX  PBC ( 1  4  3  4 0 0)

     celldm(1)=   5.420000  celldm(2)=   0.000000  celldm(3)=   0.000000
     celldm(4)=   0.000000  celldm(5)=   0.000000  celldm(6)=   0.000000

     crystal axes: (cart. coord. in units of alat)
               a(1) = (   0.500000   0.500000   0.500000 )  
               a(2) = (  -0.500000   0.500000   0.500000 )  
               a(3) = (  -0.500000  -0.500000   0.500000 )  

     reciprocal axes: (cart. coord. in units 2 pi/alat)
               b(1) = (  1.000000  0.000000  1.000000 )  
               b(2) = ( -1.000000  1.000000  0.000000 )  
               b(3) = (  0.000000 -1.000000  1.000000 )  


     PseudoPot. # 1 for Fe read from file:
     ./Fe.pbe-spn-kjpaw_psl.0.2.1.UPF
     MD5 check sum: a0a08122d52b112de96d1da1d7dd020f
     Pseudo is Projector augmented-wave + core cor, Zval = 16.0
     Generated using "atomic" code by A. Dal Corso  v.5.0.2 svn rev. 9415
     Shape of augmentation charge: PSQ
     Using radial grid of 1191 points,  6 beta functions with: 
                l(1) =   0
                l(2) =   0
                l(3) =   1
                l(4) =   1
                l(5) =   2
                l(6) =   2
     Q(r) pseudized with 0 coefficients 


     atomic species   valence    mass     pseudopotential
        Fe            16.00    55.85000     Fe( 1.00)

     Starting magnetic structure 
     atomic species   magnetization
        Fe           0.700

     48 Sym. Ops., with inversion, found



   Cartesian axes

     site n.     atom                  positions (alat units)
         1           Fe  tau(   1) = (   0.0000000   0.0000000   0.0000000  )

     number of k points=   144  Marzari-Vanderbilt smearing, width (Ry)=  0.0250

     Number of k-points >= 100: set verbosity='high' to print them.

     Dense  grid:     5425 G-vectors     FFT dimensions: (  24,  24,  24)

     Smooth grid:     3805 G-vectors     FFT dimensions: (  24,  24,  24)

     Largest allocated arrays     est. size (Mb)     dimensions
        Kohn-Sham Wavefunctions         0.09 Mb     (     490,   12)
        NL pseudopotentials             0.13 Mb     (     490,   18)
        Each V/rho on FFT grid          0.42 Mb     (   13824,   2)
        Each G-vector array             0.04 Mb     (    5425)
        G-vector shells                 0.00 Mb     (      88)
     Largest temporary arrays     est. size (Mb)     dimensions
        Auxiliary wavefunctions         0.36 Mb     (     490,   48)
        Each subspace H/S matrix        0.04 Mb     (      48,   48)
        Each <psi_i|beta_j> matrix      0.00 Mb     (      18,   12)
        Arrays for rho mixing           1.69 Mb     (   13824,    8)

     Check: negative/imaginary core charge=   -0.000436    0.000000

     Initial potential from superposition of free atoms

     starting charge   15.99956, renormalised to   16.00000
     Starting wfc are   13 randomized atomic wfcs

     total cpu time spent up to now is        2.9 secs

     Self-consistent Calculation

     iteration #  1     ecut=    50.00 Ry     beta=0.70
     Davidson diagonalization with overlap
     ethr =  1.00E-02,  avg # of iterations =  3.2

     negative rho (up, down):  0.000E+00 3.473E-04

     Magnetic moment per site:
     atom:    1    charge:   14.2914    magn:    5.7105    constr:    0.0000

     total cpu time spent up to now is        6.8 secs

     total energy              =    -328.98392844 Ry
     Harris-Foulkes estimate   =    -328.06311556 Ry
     estimated scf accuracy    <       1.50500084 Ry

     total magnetization       =     3.87 Bohr mag/cell
     absolute magnetization    =     3.90 Bohr mag/cell

     iteration #  2     ecut=    50.00 Ry     beta=0.70
     Davidson diagonalization with overlap
     ethr =  9.41E-03,  avg # of iterations =  1.2

     negative rho (up, down):  0.000E+00 3.733E-04

     Magnetic moment per site:
     atom:    1    charge:   14.5193    magn:    3.5272    constr:    0.0000

     total cpu time spent up to now is        9.7 secs

     total energy              =    -329.15862859 Ry
     Harris-Foulkes estimate   =    -329.10151395 Ry
     estimated scf accuracy    <       0.34630642 Ry

     total magnetization       =     3.09 Bohr mag/cell
     absolute magnetization    =     3.21 Bohr mag/cell

     iteration #  3     ecut=    50.00 Ry     beta=0.70
     Davidson diagonalization with overlap
     ethr =  2.16E-03,  avg # of iterations =  2.0

     negative rho (up, down):  0.000E+00 3.801E-04

     Magnetic moment per site:
     atom:    1    charge:   14.4040    magn:    2.5173    constr:    0.0000

     total cpu time spent up to now is       13.2 secs

     total energy              =    -329.18125857 Ry
     Harris-Foulkes estimate   =    -329.34277736 Ry
     estimated scf accuracy    <       0.46964953 Ry

     total magnetization       =     2.54 Bohr mag/cell
     absolute magnetization    =     2.68 Bohr mag/cell

     iteration #  4     ecut=    50.00 Ry     beta=0.70
     Davidson diagonalization with overlap
     ethr =  2.16E-03,  avg # of iterations =  2.0

     negative rho (up, down):  0.000E+00 2.258E-04

     Magnetic moment per site:
     atom:    1    charge:   14.4388    magn:    2.3131    constr:    0.0000

     total cpu time spent up to now is       16.6 secs

     total energy              =    -329.25853188 Ry
     Harris-Foulkes estimate   =    -329.25776035 Ry
     estimated scf accuracy    <       0.00189847 Ry

     total magnetization       =     2.35 Bohr mag/cell
     absolute magnetization    =     2.52 Bohr mag/cell

     iteration #  5     ecut=    50.00 Ry     beta=0.70
     Davidson diagonalization with overlap
     ethr =  1.19E-05,  avg # of iterations =  3.4

     negative rho (up, down):  0.000E+00 2.194E-04

     Magnetic moment per site:
     atom:    1    charge:   14.4286    magn:    2.2896    constr:    0.0000

     total cpu time spent up to now is       20.8 secs

     total energy              =    -329.26172195 Ry
     Harris-Foulkes estimate   =    -329.26148363 Ry
     estimated scf accuracy    <       0.00041031 Ry

     total magnetization       =     2.22 Bohr mag/cell
     absolute magnetization    =     2.37 Bohr mag/cell

     iteration #  6     ecut=    50.00 Ry     beta=0.70
     Davidson diagonalization with overlap
     ethr =  2.56E-06,  avg # of iterations =  1.6

     negative rho (up, down):  0.000E+00 1.507E-04

     Magnetic moment per site:
     atom:    1    charge:   14.4211    magn:    2.1707    constr:    0.0000

     total cpu time spent up to now is       23.8 secs

     total energy              =    -329.26149864 Ry
     Harris-Foulkes estimate   =    -329.26180578 Ry
     estimated scf accuracy    <       0.00020165 Ry

     total magnetization       =     2.20 Bohr mag/cell
     absolute magnetization    =     2.34 Bohr mag/cell

     iteration #  7     ecut=    50.00 Ry     beta=0.70
     Davidson diagonalization with overlap
     ethr =  1.26E-06,  avg # of iterations =  2.4

     negative rho (up, down):  0.000E+00 1.833E-04

     Magnetic moment per site:
     atom:    1    charge:   14.4261    magn:    2.2303    constr:    0.0000

     total cpu time spent up to now is       27.6 secs

     total energy              =    -329.26204941 Ry
     Harris-Foulkes estimate   =    -329.26191841 Ry
     estimated scf accuracy    <       0.00009540 Ry

     total magnetization       =     2.15 Bohr mag/cell
     absolute magnetization    =     2.26 Bohr mag/cell

     iteration #  8     ecut=    50.00 Ry     beta=0.70
     Davidson diagonalization with overlap
     ethr =  5.96E-07,  avg # of iterations =  2.0

     negative rho (up, down):  0.000E+00 1.819E-04

     Magnetic moment per site:
     atom:    1    charge:   14.4271    magn:    2.2232    constr:    0.0000

     total cpu time spent up to now is       30.8 secs

     total energy              =    -329.26211003 Ry
     Harris-Foulkes estimate   =    -329.26210102 Ry
     estimated scf accuracy    <       0.00001173 Ry

     total magnetization       =     2.17 Bohr mag/cell
     absolute magnetization    =     2.29 Bohr mag/cell

     iteration #  9     ecut=    50.00 Ry     beta=0.70
     Davidson diagonalization with overlap
     ethr =  7.33E-08,  avg # of iterations =  2.4

     negative rho (up, down):  0.000E+00 1.790E-04

     Magnetic moment per site:
     atom:    1    charge:   14.4266    magn:    2.2135    constr:    0.0000

     total cpu time spent up to now is       34.2 secs

     total energy              =    -329.26211670 Ry
     Harris-Foulkes estimate   =    -329.26211395 Ry
     estimated scf accuracy    <       0.00000559 Ry

     total magnetization       =     2.17 Bohr mag/cell
     absolute magnetization    =     2.29 Bohr mag/cell

     iteration # 10     ecut=    50.00 Ry     beta=0.70
     Davidson diagonalization with overlap
     ethr =  3.49E-08,  avg # of iterations =  1.5

     negative rho (up, down):  0.000E+00 1.765E-04

     Magnetic moment per site:
     atom:    1    charge:   14.4262    magn:    2.2078    constr:    0.0000

     total cpu time spent up to now is       37.3 secs

     total energy              =    -329.26211954 Ry
     Harris-Foulkes estimate   =    -329.26211907 Ry
     estimated scf accuracy    <       0.00000124 Ry

     total magnetization       =     2.16 Bohr mag/cell
     absolute magnetization    =     2.28 Bohr mag/cell

     iteration # 11     ecut=    50.00 Ry     beta=0.70
     Davidson diagonalization with overlap
     ethr =  7.72E-09,  avg # of iterations =  1.8

     negative rho (up, down):  0.000E+00 1.767E-04

     Magnetic moment per site:
     atom:    1    charge:   14.4262    magn:    2.2082    constr:    0.0000

     total cpu time spent up to now is       40.7 secs

     total energy              =    -329.26212050 Ry
     Harris-Foulkes estimate   =    -329.26212027 Ry
     estimated scf accuracy    <       0.00000007 Ry

     total magnetization       =     2.16 Bohr mag/cell
     absolute magnetization    =     2.28 Bohr mag/cell

     iteration # 12     ecut=    50.00 Ry     beta=0.70
     Davidson diagonalization with overlap
     ethr =  4.15E-10,  avg # of iterations =  2.9

     negative rho (up, down):  0.000E+00 1.763E-04

     Magnetic moment per site:
     atom:    1    charge:   14.4261    magn:    2.2068    constr:    0.0000

     total cpu time spent up to now is       44.2 secs

     total energy              =    -329.26212065 Ry
     Harris-Foulkes estimate   =    -329.26212052 Ry
     estimated scf accuracy    <       0.00000015 Ry

     total magnetization       =     2.16 Bohr mag/cell
     absolute magnetization    =     2.28 Bohr mag/cell

     iteration # 13     ecut=    50.00 Ry     beta=0.70
     Davidson diagonalization with overlap
     ethr =  4.15E-10,  avg # of iterations =  1.5

     negative rho (up, down):  0.000E+00 1.763E-04

     Magnetic moment per site:
     atom:    1    charge:   14.4261    magn:    2.2065    constr:    0.0000

     total cpu time spent up to now is       47.1 secs

     total energy              =    -329.26212073 Ry
     Harris-Foulkes estimate   =    -329.26212071 Ry
     estimated scf accuracy    <       0.00000005 Ry

     total magnetization       =     2.16 Bohr mag/cell
     absolute magnetization    =     2.28 Bohr mag/cell

     iteration # 14     ecut=    50.00 Ry     beta=0.70
     Davidson diagonalization with overlap
     ethr =  2.90E-10,  avg # of iterations =  1.0

     negative rho (up, down):  0.000E+00 1.758E-04

     Magnetic moment per site:
     atom:    1    charge:   14.4261    magn:    2.2053    constr:    0.0000

     total cpu time spent up to now is       49.9 secs

     total energy              =    -329.26212073 Ry
     Harris-Foulkes estimate   =    -329.26212074 Ry
     estimated scf accuracy    <       0.00000003 Ry

     total magnetization       =     2.16 Bohr mag/cell
     absolute magnetization    =     2.28 Bohr mag/cell

     iteration # 15     ecut=    50.00 Ry     beta=0.70
     Davidson diagonalization with overlap
     ethr =  2.17E-10,  avg # of iterations =  1.7

     negative rho (up, down):  0.000E+00 1.759E-04

     Magnetic moment per site:
     atom:    1    charge:   14.4261    magn:    2.2053    constr:    0.0000

     total cpu time spent up to now is       53.1 secs

     End of self-consistent calculation

     Number of k-points >= 100: set verbosity='high' to print the bands.

     the Fermi energy is    17.4455 ev

!    total energy              =    -329.26212079 Ry
     Harris-Foulkes estimate   =    -329.26212077 Ry
     estimated scf accuracy    <          4.2E-10 Ry

     total all-electron energy =     -2545.558656 Ry

     The total energy is the sum of the following terms:

     one-electron contribution =    -113.04429875 Ry
     hartree contribution      =      66.62475187 Ry
     xc contribution           =     -34.80408187 Ry
     ewald contribution        =    -171.88999319 Ry
     one-center paw contrib.   =     -76.14994071 Ry
     smearing contrib. (-TS)   =       0.00144187 Ry

     total magnetization       =     2.16 Bohr mag/cell
     absolute magnetization    =     2.28 Bohr mag/cell

     convergence has been achieved in  15 iterations

     Forces acting on atoms (Ry/au):


     negative rho (up, down):  0.000E+00 1.759E-04
     atom    1 type  1   force =     0.00000000    0.00000000    0.00000000

     Total force =     0.000000     Total SCF correction =     0.000000


     entering subroutine stress ...


     negative rho (up, down):  0.000E+00 1.759E-04
          total   stress  (Ry/bohr**3)                   (kbar)     P= -156.41
  -0.00106324  -0.00000000   0.00000000       -156.41     -0.00      0.00
  -0.00000000  -0.00106324  -0.00000000         -0.00   -156.41     -0.00
   0.00000000  -0.00000000  -0.00106324          0.00     -0.00   -156.41


     Writing output data file Fe_bcc.save

     init_run     :      2.19s CPU      2.29s WALL (       1 calls)
     electrons    :     49.78s CPU     50.16s WALL (       1 calls)
     forces       :      0.18s CPU      0.19s WALL (       1 calls)
     stress       :      0.67s CPU      0.68s WALL (       1 calls)

     Called by init_run:
     wfcinit      :      1.09s CPU      1.10s WALL (       1 calls)
     potinit      :      0.53s CPU      0.55s WALL (       1 calls)

     Called by electrons:
     c_bands      :     35.88s CPU     36.01s WALL (      15 calls)
     sum_band     :      6.32s CPU      6.38s WALL (      15 calls)
     v_of_rho     :      0.34s CPU      0.35s WALL (      16 calls)
     newd         :      0.24s CPU      0.25s WALL (      16 calls)
     mix_rho      :      0.04s CPU      0.05s WALL (      15 calls)

     Called by c_bands:
     init_us_2    :      0.80s CPU      0.80s WALL (    4752 calls)
     cegterg      :     34.28s CPU     34.38s WALL (    2160 calls)

     Called by *egterg:
     h_psi        :     29.40s CPU     29.65s WALL (    6734 calls)
     s_psi        :      0.78s CPU      0.64s WALL (    6734 calls)
     g_psi        :      0.17s CPU      0.17s WALL (    4430 calls)
     cdiaghg      :      1.83s CPU      1.84s WALL (    6590 calls)

     Called by h_psi:
     add_vuspsi   :      0.79s CPU      0.68s WALL (    6734 calls)

     General routines
     calbec       :      0.85s CPU      0.86s WALL (    9182 calls)
     fft          :      0.18s CPU      0.18s WALL (     530 calls)
     ffts         :      0.02s CPU      0.02s WALL (      62 calls)
     fftw         :     30.03s CPU     30.32s WALL (  150204 calls)
     interpolate  :      0.05s CPU      0.05s WALL (      62 calls)
     davcio       :      0.00s CPU      0.01s WALL (     144 calls)


     PAW routines
     PAW_pot      :      7.45s CPU      7.63s WALL (      16 calls)
     PAW_symme    :      0.02s CPU      0.02s WALL (      31 calls)

     PWSCF        :    53.49s CPU        54.24s WALL


   This run was terminated on:  10:43:20  11May2015            

=------------------------------------------------------------------------------=
   JOB DONE.
=------------------------------------------------------------------------------=
