
     Program PWSCF v.5.1.2 starts on 11May2015 at 10:15:42 

     This program is part of the open-source Quantum ESPRESSO suite
     for quantum simulation of materials; please cite
         "P. Giannozzi et al., J. Phys.:Condens. Matter 21 395502 (2009);
          URL http://www.quantum-espresso.org", 
     in publications or presentations arising from this work. More details at
     http://www.quantum-espresso.org/quote

     Serial version
     Reading input from Fe_bcc_5.45_7.pw.in

     Current dimensions of program PWSCF are:
     Max number of different atomic species (ntypx) = 10
     Max number of k-points (npk) =  40000
     Max angular momentum in pseudopotentials (lmaxx) =  3
               file Fe.pbe-spn-kjpaw_psl.0.2.1.UPF: wavefunction(s)  3D renormalized

     G-vector sticks info
     --------------------
     sticks:   dense  smooth     PW     G-vecs:    dense   smooth      PW
     Sum         411     337    103                 5425     3925     683

     Generating pointlists ...
     new r_m :   0.3572 (alat units)  1.9469 (a.u.) for type    1


     bravais-lattice index     =            3
     lattice parameter (alat)  =       5.4500  a.u.
     unit-cell volume          =      80.9393 (a.u.)^3
     number of atoms/cell      =            1
     number of atomic types    =            1
     number of electrons       =        16.00
     number of Kohn-Sham states=           12
     kinetic-energy cutoff     =      50.0000  Ry
     charge density cutoff     =     250.0000  Ry
     convergence threshold     =      1.0E-08
     mixing beta               =       0.7000
     number of iterations used =            8  plain     mixing
     Exchange-correlation      =  SLA  PW   PBX  PBC ( 1  4  3  4 0 0)

     celldm(1)=   5.450000  celldm(2)=   0.000000  celldm(3)=   0.000000
     celldm(4)=   0.000000  celldm(5)=   0.000000  celldm(6)=   0.000000

     crystal axes: (cart. coord. in units of alat)
               a(1) = (   0.500000   0.500000   0.500000 )  
               a(2) = (  -0.500000   0.500000   0.500000 )  
               a(3) = (  -0.500000  -0.500000   0.500000 )  

     reciprocal axes: (cart. coord. in units 2 pi/alat)
               b(1) = (  1.000000  0.000000  1.000000 )  
               b(2) = ( -1.000000  1.000000  0.000000 )  
               b(3) = (  0.000000 -1.000000  1.000000 )  


     PseudoPot. # 1 for Fe read from file:
     ./Fe.pbe-spn-kjpaw_psl.0.2.1.UPF
     MD5 check sum: a0a08122d52b112de96d1da1d7dd020f
     Pseudo is Projector augmented-wave + core cor, Zval = 16.0
     Generated using "atomic" code by A. Dal Corso  v.5.0.2 svn rev. 9415
     Shape of augmentation charge: PSQ
     Using radial grid of 1191 points,  6 beta functions with: 
                l(1) =   0
                l(2) =   0
                l(3) =   1
                l(4) =   1
                l(5) =   2
                l(6) =   2
     Q(r) pseudized with 0 coefficients 


     atomic species   valence    mass     pseudopotential
        Fe            16.00    55.85000     Fe( 1.00)

     Starting magnetic structure 
     atomic species   magnetization
        Fe           0.700

     48 Sym. Ops., with inversion, found



   Cartesian axes

     site n.     atom                  positions (alat units)
         1           Fe  tau(   1) = (   0.0000000   0.0000000   0.0000000  )

     number of k points=    40  Marzari-Vanderbilt smearing, width (Ry)=  0.0250
                       cart. coord. in units 2pi/alat
        k(    1) = (   0.0000000   0.0000000   0.0000000), wk =   0.0029155
        k(    2) = (   0.0000000  -0.1428571   0.1428571), wk =   0.0349854
        k(    3) = (   0.0000000  -0.2857143   0.2857143), wk =   0.0349854
        k(    4) = (   0.0000000  -0.4285714   0.4285714), wk =   0.0349854
        k(    5) = (  -0.1428571  -0.1428571   0.2857143), wk =   0.0699708
        k(    6) = (  -0.1428571  -0.2857143   0.4285714), wk =   0.1399417
        k(    7) = (  -0.1428571   0.5714286  -0.4285714), wk =   0.0699708
        k(    8) = (  -0.2857143   0.7142857  -0.4285714), wk =   0.0699708
        k(    9) = (   0.0000000   0.0000000   0.2857143), wk =   0.0174927
        k(   10) = (   0.0000000  -0.1428571   0.4285714), wk =   0.0699708
        k(   11) = (   0.0000000  -0.2857143   0.5714286), wk =   0.0699708
        k(   12) = (  -0.1428571  -0.1428571   0.5714286), wk =   0.0699708
        k(   13) = (  -0.1428571   0.7142857  -0.2857143), wk =   0.0699708
        k(   14) = (  -0.2857143   0.2857143   0.2857143), wk =   0.0233236
        k(   15) = (   0.5714286  -0.5714286   0.2857143), wk =   0.0699708
        k(   16) = (   0.4285714  -0.5714286   0.4285714), wk =   0.0233236
        k(   17) = (   0.0000000   0.0000000   0.5714286), wk =   0.0174927
        k(   18) = (   0.0000000  -0.1428571   0.7142857), wk =   0.0699708
        k(   19) = (  -0.1428571   0.8571429  -0.1428571), wk =   0.0233236
        k(   20) = (   0.0000000   0.0000000   0.8571429), wk =   0.0174927
        k(   21) = (   0.0000000   0.0000000   0.0000000), wk =   0.0029155
        k(   22) = (   0.0000000  -0.1428571   0.1428571), wk =   0.0349854
        k(   23) = (   0.0000000  -0.2857143   0.2857143), wk =   0.0349854
        k(   24) = (   0.0000000  -0.4285714   0.4285714), wk =   0.0349854
        k(   25) = (  -0.1428571  -0.1428571   0.2857143), wk =   0.0699708
        k(   26) = (  -0.1428571  -0.2857143   0.4285714), wk =   0.1399417
        k(   27) = (  -0.1428571   0.5714286  -0.4285714), wk =   0.0699708
        k(   28) = (  -0.2857143   0.7142857  -0.4285714), wk =   0.0699708
        k(   29) = (   0.0000000   0.0000000   0.2857143), wk =   0.0174927
        k(   30) = (   0.0000000  -0.1428571   0.4285714), wk =   0.0699708
        k(   31) = (   0.0000000  -0.2857143   0.5714286), wk =   0.0699708
        k(   32) = (  -0.1428571  -0.1428571   0.5714286), wk =   0.0699708
        k(   33) = (  -0.1428571   0.7142857  -0.2857143), wk =   0.0699708
        k(   34) = (  -0.2857143   0.2857143   0.2857143), wk =   0.0233236
        k(   35) = (   0.5714286  -0.5714286   0.2857143), wk =   0.0699708
        k(   36) = (   0.4285714  -0.5714286   0.4285714), wk =   0.0233236
        k(   37) = (   0.0000000   0.0000000   0.5714286), wk =   0.0174927
        k(   38) = (   0.0000000  -0.1428571   0.7142857), wk =   0.0699708
        k(   39) = (  -0.1428571   0.8571429  -0.1428571), wk =   0.0233236
        k(   40) = (   0.0000000   0.0000000   0.8571429), wk =   0.0174927

     Dense  grid:     5425 G-vectors     FFT dimensions: (  24,  24,  24)

     Smooth grid:     3925 G-vectors     FFT dimensions: (  24,  24,  24)

     Largest allocated arrays     est. size (Mb)     dimensions
        Kohn-Sham Wavefunctions         0.09 Mb     (     493,   12)
        NL pseudopotentials             0.14 Mb     (     493,   18)
        Each V/rho on FFT grid          0.42 Mb     (   13824,   2)
        Each G-vector array             0.04 Mb     (    5425)
        G-vector shells                 0.00 Mb     (      88)
     Largest temporary arrays     est. size (Mb)     dimensions
        Auxiliary wavefunctions         0.36 Mb     (     493,   48)
        Each subspace H/S matrix        0.04 Mb     (      48,   48)
        Each <psi_i|beta_j> matrix      0.00 Mb     (      18,   12)
        Arrays for rho mixing           1.69 Mb     (   13824,    8)

     Check: negative/imaginary core charge=   -0.000421    0.000000

     Initial potential from superposition of free atoms

     starting charge   15.99956, renormalised to   16.00000
     Starting wfc are   13 randomized atomic wfcs

     total cpu time spent up to now is        1.7 secs

     Self-consistent Calculation

     iteration #  1     ecut=    50.00 Ry     beta=0.70
     Davidson diagonalization with overlap
     ethr =  1.00E-02,  avg # of iterations =  3.2

     negative rho (up, down):  0.000E+00 3.579E-04

     Magnetic moment per site:
     atom:    1    charge:   14.3023    magn:    5.7193    constr:    0.0000

     total cpu time spent up to now is        3.2 secs

     total energy              =    -328.98907059 Ry
     Harris-Foulkes estimate   =    -328.07053314 Ry
     estimated scf accuracy    <       1.50143227 Ry

     total magnetization       =     3.87 Bohr mag/cell
     absolute magnetization    =     3.91 Bohr mag/cell

     iteration #  2     ecut=    50.00 Ry     beta=0.70
     Davidson diagonalization with overlap
     ethr =  9.38E-03,  avg # of iterations =  1.2

     negative rho (up, down):  0.000E+00 3.822E-04

     Magnetic moment per site:
     atom:    1    charge:   14.5344    magn:    3.5491    constr:    0.0000

     total cpu time spent up to now is        4.4 secs

     total energy              =    -329.15724121 Ry
     Harris-Foulkes estimate   =    -329.10452254 Ry
     estimated scf accuracy    <       0.35406260 Ry

     total magnetization       =     3.08 Bohr mag/cell
     absolute magnetization    =     3.21 Bohr mag/cell

     iteration #  3     ecut=    50.00 Ry     beta=0.70
     Davidson diagonalization with overlap
     ethr =  2.21E-03,  avg # of iterations =  2.2

     negative rho (up, down):  0.000E+00 3.898E-04

     Magnetic moment per site:
     atom:    1    charge:   14.4182    magn:    2.4858    constr:    0.0000

     total cpu time spent up to now is        5.7 secs

     total energy              =    -329.17872894 Ry
     Harris-Foulkes estimate   =    -329.34686453 Ry
     estimated scf accuracy    <       0.49837819 Ry

     total magnetization       =     2.49 Bohr mag/cell
     absolute magnetization    =     2.65 Bohr mag/cell

     iteration #  4     ecut=    50.00 Ry     beta=0.70
     Davidson diagonalization with overlap
     ethr =  2.21E-03,  avg # of iterations =  2.0

     negative rho (up, down):  0.000E+00 2.456E-04

     Magnetic moment per site:
     atom:    1    charge:   14.4489    magn:    2.3237    constr:    0.0000

     total cpu time spent up to now is        7.0 secs

     total energy              =    -329.25852728 Ry
     Harris-Foulkes estimate   =    -329.25744419 Ry
     estimated scf accuracy    <       0.00191346 Ry

     total magnetization       =     2.33 Bohr mag/cell
     absolute magnetization    =     2.50 Bohr mag/cell

     iteration #  5     ecut=    50.00 Ry     beta=0.70
     Davidson diagonalization with overlap
     ethr =  1.20E-05,  avg # of iterations =  3.3

     negative rho (up, down):  0.000E+00 2.301E-04

     Magnetic moment per site:
     atom:    1    charge:   14.4388    magn:    2.2950    constr:    0.0000

     total cpu time spent up to now is        8.5 secs

     total energy              =    -329.26165516 Ry
     Harris-Foulkes estimate   =    -329.26140620 Ry
     estimated scf accuracy    <       0.00043290 Ry

     total magnetization       =     2.24 Bohr mag/cell
     absolute magnetization    =     2.38 Bohr mag/cell

     iteration #  6     ecut=    50.00 Ry     beta=0.70
     Davidson diagonalization with overlap
     ethr =  2.71E-06,  avg # of iterations =  1.7

     negative rho (up, down):  0.000E+00 1.781E-04

     Magnetic moment per site:
     atom:    1    charge:   14.4330    magn:    2.2305    constr:    0.0000

     total cpu time spent up to now is        9.8 secs

     total energy              =    -329.26170342 Ry
     Harris-Foulkes estimate   =    -329.26179019 Ry
     estimated scf accuracy    <       0.00023426 Ry

     total magnetization       =     2.22 Bohr mag/cell
     absolute magnetization    =     2.35 Bohr mag/cell

     iteration #  7     ecut=    50.00 Ry     beta=0.70
     Davidson diagonalization with overlap
     ethr =  1.46E-06,  avg # of iterations =  1.6

     negative rho (up, down):  0.000E+00 2.051E-04

     Magnetic moment per site:
     atom:    1    charge:   14.4394    magn:    2.2718    constr:    0.0000

     total cpu time spent up to now is       11.0 secs

     total energy              =    -329.26198654 Ry
     Harris-Foulkes estimate   =    -329.26191838 Ry
     estimated scf accuracy    <       0.00004840 Ry

     total magnetization       =     2.20 Bohr mag/cell
     absolute magnetization    =     2.31 Bohr mag/cell

     iteration #  8     ecut=    50.00 Ry     beta=0.70
     Davidson diagonalization with overlap
     ethr =  3.03E-07,  avg # of iterations =  1.8

     negative rho (up, down):  0.000E+00 1.997E-04

     Magnetic moment per site:
     atom:    1    charge:   14.4384    magn:    2.2562    constr:    0.0000

     total cpu time spent up to now is       12.4 secs

     total energy              =    -329.26201892 Ry
     Harris-Foulkes estimate   =    -329.26201187 Ry
     estimated scf accuracy    <       0.00002661 Ry

     total magnetization       =     2.21 Bohr mag/cell
     absolute magnetization    =     2.33 Bohr mag/cell

     iteration #  9     ecut=    50.00 Ry     beta=0.70
     Davidson diagonalization with overlap
     ethr =  1.66E-07,  avg # of iterations =  1.5

     negative rho (up, down):  0.000E+00 1.968E-04

     Magnetic moment per site:
     atom:    1    charge:   14.4371    magn:    2.2509    constr:    0.0000

     total cpu time spent up to now is       13.6 secs

     total energy              =    -329.26202959 Ry
     Harris-Foulkes estimate   =    -329.26202856 Ry
     estimated scf accuracy    <       0.00000339 Ry

     total magnetization       =     2.21 Bohr mag/cell
     absolute magnetization    =     2.32 Bohr mag/cell

     iteration # 10     ecut=    50.00 Ry     beta=0.70
     Davidson diagonalization with overlap
     ethr =  2.12E-08,  avg # of iterations =  1.6

     negative rho (up, down):  0.000E+00 1.963E-04

     Magnetic moment per site:
     atom:    1    charge:   14.4371    magn:    2.2496    constr:    0.0000

     total cpu time spent up to now is       14.8 secs

     total energy              =    -329.26203075 Ry
     Harris-Foulkes estimate   =    -329.26203032 Ry
     estimated scf accuracy    <       0.00000009 Ry

     total magnetization       =     2.21 Bohr mag/cell
     absolute magnetization    =     2.32 Bohr mag/cell

     iteration # 11     ecut=    50.00 Ry     beta=0.70
     Davidson diagonalization with overlap
     ethr =  5.75E-10,  avg # of iterations =  3.1

     negative rho (up, down):  0.000E+00 1.964E-04

     Magnetic moment per site:
     atom:    1    charge:   14.4371    magn:    2.2496    constr:    0.0000

     total cpu time spent up to now is       16.4 secs

     total energy              =    -329.26203096 Ry
     Harris-Foulkes estimate   =    -329.26203087 Ry
     estimated scf accuracy    <       0.00000003 Ry

     total magnetization       =     2.21 Bohr mag/cell
     absolute magnetization    =     2.32 Bohr mag/cell

     iteration # 12     ecut=    50.00 Ry     beta=0.70
     Davidson diagonalization with overlap
     ethr =  1.64E-10,  avg # of iterations =  1.3

     negative rho (up, down):  0.000E+00 1.964E-04

     Magnetic moment per site:
     atom:    1    charge:   14.4371    magn:    2.2495    constr:    0.0000

     total cpu time spent up to now is       17.6 secs

     total energy              =    -329.26203098 Ry
     Harris-Foulkes estimate   =    -329.26203097 Ry
     estimated scf accuracy    <       0.00000003 Ry

     total magnetization       =     2.21 Bohr mag/cell
     absolute magnetization    =     2.32 Bohr mag/cell

     iteration # 13     ecut=    50.00 Ry     beta=0.70
     Davidson diagonalization with overlap
     ethr =  1.64E-10,  avg # of iterations =  1.1

     negative rho (up, down):  0.000E+00 1.928E-04

     Magnetic moment per site:
     atom:    1    charge:   14.4369    magn:    2.2399    constr:    0.0000

     total cpu time spent up to now is       18.7 secs

     total energy              =    -329.26202188 Ry
     Harris-Foulkes estimate   =    -329.26203099 Ry
     estimated scf accuracy    <       0.00000003 Ry

     total magnetization       =     2.21 Bohr mag/cell
     absolute magnetization    =     2.32 Bohr mag/cell

     iteration # 14     ecut=    50.00 Ry     beta=0.70
     Davidson diagonalization with overlap
     ethr =  1.57E-10,  avg # of iterations =  3.9

     negative rho (up, down):  0.000E+00 1.959E-04

     Magnetic moment per site:
     atom:    1    charge:   14.4371    magn:    2.2481    constr:    0.0000

     total cpu time spent up to now is       20.3 secs

     total energy              =    -329.26202940 Ry
     Harris-Foulkes estimate   =    -329.26202422 Ry
     estimated scf accuracy    <       0.00000284 Ry

     total magnetization       =     2.20 Bohr mag/cell
     absolute magnetization    =     2.31 Bohr mag/cell

     iteration # 15     ecut=    50.00 Ry     beta=0.70
     Davidson diagonalization with overlap
     ethr =  1.57E-10,  avg # of iterations =  3.7

     negative rho (up, down):  0.000E+00 1.959E-04

     Magnetic moment per site:
     atom:    1    charge:   14.4371    magn:    2.2482    constr:    0.0000

     total cpu time spent up to now is       21.9 secs

     End of self-consistent calculation

 ------ SPIN UP ------------


          k = 0.0000 0.0000 0.0000 (   459 PWs)   bands (ev):

   -70.9603 -36.7954 -36.7954 -36.7954   8.8733  14.9489  14.9489  14.9489
    15.8757  15.8757  41.4472  41.4472

          k = 0.0000-0.1429 0.1429 (   481 PWs)   bands (ev):

   -70.9495 -36.8630 -36.8191 -36.7975   9.6677  14.7472  14.8945  15.3607
    15.7416  15.8942  37.2041  39.9771

          k = 0.0000-0.2857 0.2857 (   489 PWs)   bands (ev):

   -70.9234 -37.0093 -36.8691 -36.7981  11.5583  14.3134  14.8227  15.8550
    15.9578  16.3772  30.6474  37.0078

          k = 0.0000-0.4286 0.4286 (   488 PWs)   bands (ev):

   -70.9021 -37.1246 -36.9082 -36.7979  12.3831  13.9830  15.9324  16.0324
    16.8744  17.3152  25.0828  35.1762

          k =-0.1429-0.1429 0.2857 (   484 PWs)   bands (ev):

   -70.9305 -36.9625 -36.8459 -36.8132  11.0815  14.5070  14.5486  15.6583
    16.0180  16.2255  33.8673  34.9179

          k =-0.1429-0.2857 0.4286 (   485 PWs)   bands (ev):

   -70.9067 -37.0730 -36.9046 -36.8191  12.6456  14.1093  14.7310  15.8811
    16.2106  17.8188  27.9512  32.2772

          k =-0.1429 0.5714-0.4286 (   484 PWs)   bands (ev):

   -70.8960 -37.1188 -36.9348 -36.8198  12.7745  13.9919  15.2903  15.9777
    16.6254  19.7088  24.0543  31.4319

          k =-0.2857 0.7143-0.4286 (   480 PWs)   bands (ev):

   -70.8932 -37.0732 -36.9819 -36.8378  13.4867  13.8965  14.4541  16.0652
    16.3559  21.0105  25.8448  26.9738

          k = 0.0000 0.0000 0.2857 (   490 PWs)   bands (ev):

   -70.9386 -36.8777 -36.8429 -36.8429  10.4094  14.9947  14.9947  15.2263
    15.3612  16.1345  36.6885  38.3341

          k = 0.0000-0.1429 0.4286 (   477 PWs)   bands (ev):

   -70.9129 -37.0008 -36.8925 -36.8486  12.1185  14.4250  14.7363  15.5279
    16.2915  16.5805  31.2248  35.4643

          k = 0.0000-0.2857 0.5714 (   480 PWs)   bands (ev):

   -70.8929 -37.1080 -36.9330 -36.8449  12.7912  14.4572  14.4923  15.7574
    17.2602  18.7236  25.4357  33.5453

          k =-0.1429-0.1429 0.5714 (   481 PWs)   bands (ev):

   -70.8916 -37.0638 -36.9575 -36.8715  13.1774  13.7451  14.8332  15.7962
    16.6959  18.7513  28.7404  29.3502

          k =-0.1429 0.7143-0.2857 (   477 PWs)   bands (ev):

   -70.8818 -37.0887 -36.9977 -36.8719  13.2577  13.8405  14.5139  16.0867
    16.9896  21.9182  24.4186  28.2089

          k =-0.2857 0.2857 0.2857 (   483 PWs)   bands (ev):

   -70.9127 -37.0503 -36.8528 -36.8528  12.7609  14.0776  14.0776  15.9608
    15.9608  17.8621  31.3309  31.3309

          k = 0.5714-0.5714 0.2857 (   493 PWs)   bands (ev):

   -70.8988 -37.0758 -36.9301 -36.8597  13.3835  13.8788  14.7192  16.0530
    16.0569  20.4651  25.8700  29.9525

          k = 0.4286-0.5714 0.4286 (   484 PWs)   bands (ev):

   -70.8948 -37.0010 -37.0010 -36.8921  13.7199  14.2096  14.2096  16.0933
    16.0933  24.2518  24.2518  26.1139

          k = 0.0000 0.0000 0.5714 (   478 PWs)   bands (ev):

   -70.8906 -36.9995 -36.9462 -36.9462  12.9344  13.7528  15.6051  15.6051
    16.3116  17.9830  32.0254  32.0254

          k = 0.0000-0.1429 0.7143 (   478 PWs)   bands (ev):

   -70.8728 -37.0708 -36.9894 -36.9518  13.0201  13.2324  15.6869  16.0122
    17.1391  21.2021  26.6490  29.8433

          k =-0.1429 0.8571-0.1429 (   472 PWs)   bands (ev):

   -70.8642 -37.0512 -37.0512 -36.9624  12.9057  12.9057  15.7739  16.9470
    16.9470  25.0561  25.0561  26.3468

          k = 0.0000 0.0000 0.8571 (   486 PWs)   bands (ev):

   -70.8570 -37.0449 -37.0350 -37.0350  12.5907  12.5923  16.9012  16.9012
    17.0962  24.2856  27.3717  27.3717

 ------ SPIN DOWN ----------


          k = 0.0000 0.0000 0.0000 (   459 PWs)   bands (ev):

   -68.3123 -34.1954 -34.1954 -34.1954   9.0608  16.6983  16.6983  16.6983
    18.9263  18.9263  41.2129  41.2129

          k = 0.0000-0.1429 0.1429 (   481 PWs)   bands (ev):

   -68.3002 -34.2703 -34.2209 -34.1973   9.8627  16.4583  16.6350  17.1460
    18.6958  18.9479  37.5159  40.0127

          k = 0.0000-0.2857 0.2857 (   489 PWs)   bands (ev):

   -68.2717 -34.4329 -34.2759 -34.1978  11.9214  15.9476  16.4184  18.2631
    18.5535  19.0341  31.3757  37.1437

          k = 0.0000-0.4286 0.4286 (   488 PWs)   bands (ev):

   -68.2485 -34.5610 -34.3189 -34.1977  13.5296  15.5630  17.2457  18.6728
    19.1445  19.3156  26.2381  35.2583

          k =-0.1429-0.1429 0.2857 (   484 PWs)   bands (ev):

   -68.2796 -34.3809 -34.2505 -34.2146  11.3294  16.1959  16.2582  18.0396
    18.4452  19.0778  34.3983  35.3947

          k =-0.1429-0.2857 0.4286 (   485 PWs)   bands (ev):

   -68.2536 -34.5035 -34.3154 -34.2211  13.4226  15.7259  16.1405  18.5023
    19.0669  19.6593  28.8074  32.8093

          k =-0.1429 0.5714-0.4286 (   484 PWs)   bands (ev):

   -68.2419 -34.5544 -34.3487 -34.2219  14.0964  15.5457  16.7235  18.6474
    19.1789  20.9614  25.3138  31.9507

          k =-0.2857 0.7143-0.4286 (   480 PWs)   bands (ev):

   -68.2390 -34.5035 -34.4016 -34.2417  14.7785  15.5066  15.8851  18.6662
    19.0251  22.3174  26.7896  27.7462

          k = 0.0000 0.0000 0.2857 (   490 PWs)   bands (ev):

   -68.2884 -34.2869 -34.2470 -34.2470  10.6261  16.7039  16.7039  17.1518
    18.0483  19.2204  37.0262  38.7420

          k = 0.0000-0.1429 0.4286 (   477 PWs)   bands (ev):

   -68.2605 -34.4235 -34.3020 -34.2538  12.5721  16.3973  16.4451  17.7627
    18.1664  19.4586  31.9488  36.0213

          k = 0.0000-0.2857 0.5714 (   480 PWs)   bands (ev):

   -68.2386 -34.5422 -34.3465 -34.2499  14.0964  16.0729  16.2946  18.1385
    19.2536  20.4529  26.5184  34.0888

          k =-0.1429-0.1429 0.5714 (   481 PWs)   bands (ev):

   -68.2372 -34.4930 -34.3740 -34.2791  14.2636  15.7780  16.5123  17.8733
    18.8518  20.6057  29.6240  30.0113

          k =-0.1429 0.7143-0.2857 (   477 PWs)   bands (ev):

   -68.2266 -34.5203 -34.4187 -34.2795  14.9628  15.6775  16.1444  18.2314
    19.0765  23.1084  25.5342  28.9362

          k =-0.2857 0.2857 0.2857 (   483 PWs)   bands (ev):

   -68.2601 -34.4781 -34.2585 -34.2585  13.1609  15.6693  15.6693  18.9257
    18.9257  19.5991  31.9030  31.9030

          k = 0.5714-0.5714 0.2857 (   493 PWs)   bands (ev):

   -68.2448 -34.5065 -34.3440 -34.2661  14.5834  15.3502  15.8342  18.9595
    19.1628  21.7443  26.7795  30.5065

          k = 0.4286-0.5714 0.4286 (   484 PWs)   bands (ev):

   -68.2405 -34.4233 -34.4233 -34.3022  15.0751  15.4954  15.4954  19.1435
    19.1435  25.1415  25.1415  26.9405

          k = 0.0000 0.0000 0.5714 (   478 PWs)   bands (ev):

   -68.2364 -34.4225 -34.3612 -34.3612  13.9512  16.1189  17.3143  17.3143
    18.2027  20.1614  32.5913  32.5913

          k = 0.0000-0.1429 0.7143 (   478 PWs)   bands (ev):

   -68.2168 -34.5001 -34.4090 -34.3679  14.8078  15.2902  17.4185  17.8591
    19.1179  22.4423  27.4746  30.3423

          k =-0.1429 0.8571-0.1429 (   472 PWs)   bands (ev):

   -68.2075 -34.4777 -34.4777 -34.3797  14.9181  14.9181  17.4726  18.8960
    18.8960  25.8999  25.8999  26.9769

          k = 0.0000 0.0000 0.8571 (   486 PWs)   bands (ev):

   -68.1997 -34.4707 -34.4592 -34.4592  14.5758  14.6650  18.8101  18.8101
    19.0763  24.9587  27.7353  27.7353

     the Fermi energy is    17.1189 ev

!    total energy              =    -329.26203100 Ry
     Harris-Foulkes estimate   =    -329.26203092 Ry
     estimated scf accuracy    <          2.1E-09 Ry

     total all-electron energy =     -2545.558567 Ry

     The total energy is the sum of the following terms:

     one-electron contribution =    -114.53855389 Ry
     hartree contribution      =      67.16312802 Ry
     xc contribution           =     -34.79434616 Ry
     ewald contribution        =    -170.94380975 Ry
     one-center paw contrib.   =     -76.14963385 Ry
     smearing contrib. (-TS)   =       0.00118462 Ry

     total magnetization       =     2.20 Bohr mag/cell
     absolute magnetization    =     2.32 Bohr mag/cell

     convergence has been achieved in  15 iterations

     Forces acting on atoms (Ry/au):


     negative rho (up, down):  0.000E+00 1.959E-04
     atom    1 type  1   force =     0.00000000    0.00000000    0.00000000

     Total force =     0.000000     Total SCF correction =     0.000000


     entering subroutine stress ...


     negative rho (up, down):  0.000E+00 1.959E-04
          total   stress  (Ry/bohr**3)                   (kbar)     P= -180.96
  -0.00123016   0.00000000  -0.00000000       -180.96      0.00     -0.00
   0.00000000  -0.00123016  -0.00000000          0.00   -180.96     -0.00
  -0.00000000  -0.00000000  -0.00123016         -0.00     -0.00   -180.96


     Writing output data file Fe_bcc.save

     init_run     :      1.30s CPU      1.33s WALL (       1 calls)
     electrons    :     20.07s CPU     20.25s WALL (       1 calls)
     forces       :      0.09s CPU      0.09s WALL (       1 calls)
     stress       :      0.36s CPU      0.37s WALL (       1 calls)

     Called by init_run:
     wfcinit      :      0.31s CPU      0.31s WALL (       1 calls)
     potinit      :      0.50s CPU      0.52s WALL (       1 calls)

     Called by electrons:
     c_bands      :     10.49s CPU     10.44s WALL (      15 calls)
     sum_band     :      1.99s CPU      2.01s WALL (      15 calls)
     v_of_rho     :      0.34s CPU      0.35s WALL (      16 calls)
     newd         :      0.24s CPU      0.25s WALL (      16 calls)
     mix_rho      :      0.04s CPU      0.05s WALL (      15 calls)

     Called by c_bands:
     init_us_2    :      0.22s CPU      0.22s WALL (    1320 calls)
     cegterg      :     10.05s CPU     10.00s WALL (     600 calls)

     Called by *egterg:
     h_psi        :      8.46s CPU      8.50s WALL (    1967 calls)
     s_psi        :      0.24s CPU      0.19s WALL (    1967 calls)
     g_psi        :      0.05s CPU      0.05s WALL (    1327 calls)
     cdiaghg      :      0.59s CPU      0.60s WALL (    1927 calls)

     Called by h_psi:
     add_vuspsi   :      0.25s CPU      0.20s WALL (    1967 calls)

     General routines
     calbec       :      0.24s CPU      0.25s WALL (    2647 calls)
     fft          :      0.18s CPU      0.18s WALL (     530 calls)
     ffts         :      0.02s CPU      0.02s WALL (      62 calls)
     fftw         :      8.54s CPU      8.61s WALL (   43376 calls)
     interpolate  :      0.05s CPU      0.05s WALL (      62 calls)
     davcio       :      0.00s CPU      0.00s WALL (      40 calls)


     PAW routines
     PAW_pot      :      7.45s CPU      7.63s WALL (      16 calls)
     PAW_symme    :      0.02s CPU      0.02s WALL (      31 calls)

     PWSCF        :    22.25s CPU        22.51s WALL


   This run was terminated on:  10:16: 5  11May2015            

=------------------------------------------------------------------------------=
   JOB DONE.
=------------------------------------------------------------------------------=
