
     Program PWSCF v.5.1.2 starts on 11May2015 at 10:28:54 

     This program is part of the open-source Quantum ESPRESSO suite
     for quantum simulation of materials; please cite
         "P. Giannozzi et al., J. Phys.:Condens. Matter 21 395502 (2009);
          URL http://www.quantum-espresso.org", 
     in publications or presentations arising from this work. More details at
     http://www.quantum-espresso.org/quote

     Serial version
     Reading input from Fe_bcc_5.42_10.pw.in

     Current dimensions of program PWSCF are:
     Max number of different atomic species (ntypx) = 10
     Max number of k-points (npk) =  40000
     Max angular momentum in pseudopotentials (lmaxx) =  3
               file Fe.pbe-spn-kjpaw_psl.0.2.1.UPF: wavefunction(s)  3D renormalized

     G-vector sticks info
     --------------------
     sticks:   dense  smooth     PW     G-vecs:    dense   smooth      PW
     Sum         411     333    117                 5425     3805     767

     Generating pointlists ...
     new r_m :   0.3572 (alat units)  1.9362 (a.u.) for type    1


     bravais-lattice index     =            3
     lattice parameter (alat)  =       5.4200  a.u.
     unit-cell volume          =      79.6100 (a.u.)^3
     number of atoms/cell      =            1
     number of atomic types    =            1
     number of electrons       =        16.00
     number of Kohn-Sham states=           12
     kinetic-energy cutoff     =      50.0000  Ry
     charge density cutoff     =     250.0000  Ry
     convergence threshold     =      1.0E-08
     mixing beta               =       0.7000
     number of iterations used =            8  plain     mixing
     Exchange-correlation      =  SLA  PW   PBX  PBC ( 1  4  3  4 0 0)

     celldm(1)=   5.420000  celldm(2)=   0.000000  celldm(3)=   0.000000
     celldm(4)=   0.000000  celldm(5)=   0.000000  celldm(6)=   0.000000

     crystal axes: (cart. coord. in units of alat)
               a(1) = (   0.500000   0.500000   0.500000 )  
               a(2) = (  -0.500000   0.500000   0.500000 )  
               a(3) = (  -0.500000  -0.500000   0.500000 )  

     reciprocal axes: (cart. coord. in units 2 pi/alat)
               b(1) = (  1.000000  0.000000  1.000000 )  
               b(2) = ( -1.000000  1.000000  0.000000 )  
               b(3) = (  0.000000 -1.000000  1.000000 )  


     PseudoPot. # 1 for Fe read from file:
     ./Fe.pbe-spn-kjpaw_psl.0.2.1.UPF
     MD5 check sum: a0a08122d52b112de96d1da1d7dd020f
     Pseudo is Projector augmented-wave + core cor, Zval = 16.0
     Generated using "atomic" code by A. Dal Corso  v.5.0.2 svn rev. 9415
     Shape of augmentation charge: PSQ
     Using radial grid of 1191 points,  6 beta functions with: 
                l(1) =   0
                l(2) =   0
                l(3) =   1
                l(4) =   1
                l(5) =   2
                l(6) =   2
     Q(r) pseudized with 0 coefficients 


     atomic species   valence    mass     pseudopotential
        Fe            16.00    55.85000     Fe( 1.00)

     Starting magnetic structure 
     atomic species   magnetization
        Fe           0.700

     48 Sym. Ops., with inversion, found



   Cartesian axes

     site n.     atom                  positions (alat units)
         1           Fe  tau(   1) = (   0.0000000   0.0000000   0.0000000  )

     number of k points=    94  Marzari-Vanderbilt smearing, width (Ry)=  0.0250
                       cart. coord. in units 2pi/alat
        k(    1) = (   0.0000000   0.0000000   0.0000000), wk =   0.0010000
        k(    2) = (   0.0000000  -0.1000000   0.1000000), wk =   0.0120000
        k(    3) = (   0.0000000  -0.2000000   0.2000000), wk =   0.0120000
        k(    4) = (   0.0000000  -0.3000000   0.3000000), wk =   0.0120000
        k(    5) = (   0.0000000  -0.4000000   0.4000000), wk =   0.0120000
        k(    6) = (   0.0000000   0.5000000  -0.5000000), wk =   0.0060000
        k(    7) = (  -0.1000000  -0.1000000   0.2000000), wk =   0.0240000
        k(    8) = (  -0.1000000  -0.2000000   0.3000000), wk =   0.0480000
        k(    9) = (  -0.1000000  -0.3000000   0.4000000), wk =   0.0480000
        k(   10) = (  -0.1000000   0.6000000  -0.5000000), wk =   0.0480000
        k(   11) = (  -0.2000000  -0.2000000   0.4000000), wk =   0.0240000
        k(   12) = (  -0.2000000   0.7000000  -0.5000000), wk =   0.0480000
        k(   13) = (  -0.2000000   0.6000000  -0.4000000), wk =   0.0240000
        k(   14) = (  -0.3000000   0.7000000  -0.4000000), wk =   0.0240000
        k(   15) = (   0.0000000   0.0000000   0.2000000), wk =   0.0060000
        k(   16) = (   0.0000000  -0.1000000   0.3000000), wk =   0.0240000
        k(   17) = (   0.0000000  -0.2000000   0.4000000), wk =   0.0240000
        k(   18) = (   0.0000000  -0.3000000   0.5000000), wk =   0.0240000
        k(   19) = (   0.0000000   0.6000000  -0.4000000), wk =   0.0120000
        k(   20) = (  -0.1000000  -0.1000000   0.4000000), wk =   0.0240000
        k(   21) = (  -0.1000000  -0.2000000   0.5000000), wk =   0.0480000
        k(   22) = (  -0.1000000   0.7000000  -0.4000000), wk =   0.0480000
        k(   23) = (  -0.2000000   0.2000000   0.2000000), wk =   0.0080000
        k(   24) = (  -0.2000000   0.8000000  -0.4000000), wk =   0.0240000
        k(   25) = (  -0.2000000   0.7000000  -0.3000000), wk =   0.0240000
        k(   26) = (  -0.3000000   0.3000000   0.2000000), wk =   0.0240000
        k(   27) = (   0.6000000  -0.6000000   0.2000000), wk =   0.0240000
        k(   28) = (   0.6000000  -0.7000000   0.3000000), wk =   0.0240000
        k(   29) = (   0.5000000  -0.5000000   0.2000000), wk =   0.0120000
        k(   30) = (   0.5000000  -0.6000000   0.3000000), wk =   0.0480000
        k(   31) = (   0.4000000  -0.6000000   0.4000000), wk =   0.0080000
        k(   32) = (   0.0000000   0.0000000   0.4000000), wk =   0.0060000
        k(   33) = (   0.0000000  -0.1000000   0.5000000), wk =   0.0240000
        k(   34) = (   0.0000000  -0.2000000   0.6000000), wk =   0.0240000
        k(   35) = (   0.0000000   0.7000000  -0.3000000), wk =   0.0120000
        k(   36) = (  -0.1000000  -0.1000000   0.6000000), wk =   0.0240000
        k(   37) = (  -0.1000000   0.8000000  -0.3000000), wk =   0.0480000
        k(   38) = (  -0.2000000   0.8000000  -0.2000000), wk =   0.0080000
        k(   39) = (   0.6000000  -0.6000000   0.4000000), wk =   0.0080000
        k(   40) = (   0.5000000  -0.5000000   0.4000000), wk =   0.0120000
        k(   41) = (   0.0000000   0.0000000   0.6000000), wk =   0.0060000
        k(   42) = (   0.0000000  -0.1000000   0.7000000), wk =   0.0240000
        k(   43) = (   0.0000000   0.8000000  -0.2000000), wk =   0.0120000
        k(   44) = (  -0.1000000   0.9000000  -0.2000000), wk =   0.0240000
        k(   45) = (   0.0000000   0.0000000   0.8000000), wk =   0.0060000
        k(   46) = (   0.0000000   0.9000000  -0.1000000), wk =   0.0120000
        k(   47) = (   0.0000000   0.0000000  -1.0000000), wk =   0.0010000
        k(   48) = (   0.0000000   0.0000000   0.0000000), wk =   0.0010000
        k(   49) = (   0.0000000  -0.1000000   0.1000000), wk =   0.0120000
        k(   50) = (   0.0000000  -0.2000000   0.2000000), wk =   0.0120000
        k(   51) = (   0.0000000  -0.3000000   0.3000000), wk =   0.0120000
        k(   52) = (   0.0000000  -0.4000000   0.4000000), wk =   0.0120000
        k(   53) = (   0.0000000   0.5000000  -0.5000000), wk =   0.0060000
        k(   54) = (  -0.1000000  -0.1000000   0.2000000), wk =   0.0240000
        k(   55) = (  -0.1000000  -0.2000000   0.3000000), wk =   0.0480000
        k(   56) = (  -0.1000000  -0.3000000   0.4000000), wk =   0.0480000
        k(   57) = (  -0.1000000   0.6000000  -0.5000000), wk =   0.0480000
        k(   58) = (  -0.2000000  -0.2000000   0.4000000), wk =   0.0240000
        k(   59) = (  -0.2000000   0.7000000  -0.5000000), wk =   0.0480000
        k(   60) = (  -0.2000000   0.6000000  -0.4000000), wk =   0.0240000
        k(   61) = (  -0.3000000   0.7000000  -0.4000000), wk =   0.0240000
        k(   62) = (   0.0000000   0.0000000   0.2000000), wk =   0.0060000
        k(   63) = (   0.0000000  -0.1000000   0.3000000), wk =   0.0240000
        k(   64) = (   0.0000000  -0.2000000   0.4000000), wk =   0.0240000
        k(   65) = (   0.0000000  -0.3000000   0.5000000), wk =   0.0240000
        k(   66) = (   0.0000000   0.6000000  -0.4000000), wk =   0.0120000
        k(   67) = (  -0.1000000  -0.1000000   0.4000000), wk =   0.0240000
        k(   68) = (  -0.1000000  -0.2000000   0.5000000), wk =   0.0480000
        k(   69) = (  -0.1000000   0.7000000  -0.4000000), wk =   0.0480000
        k(   70) = (  -0.2000000   0.2000000   0.2000000), wk =   0.0080000
        k(   71) = (  -0.2000000   0.8000000  -0.4000000), wk =   0.0240000
        k(   72) = (  -0.2000000   0.7000000  -0.3000000), wk =   0.0240000
        k(   73) = (  -0.3000000   0.3000000   0.2000000), wk =   0.0240000
        k(   74) = (   0.6000000  -0.6000000   0.2000000), wk =   0.0240000
        k(   75) = (   0.6000000  -0.7000000   0.3000000), wk =   0.0240000
        k(   76) = (   0.5000000  -0.5000000   0.2000000), wk =   0.0120000
        k(   77) = (   0.5000000  -0.6000000   0.3000000), wk =   0.0480000
        k(   78) = (   0.4000000  -0.6000000   0.4000000), wk =   0.0080000
        k(   79) = (   0.0000000   0.0000000   0.4000000), wk =   0.0060000
        k(   80) = (   0.0000000  -0.1000000   0.5000000), wk =   0.0240000
        k(   81) = (   0.0000000  -0.2000000   0.6000000), wk =   0.0240000
        k(   82) = (   0.0000000   0.7000000  -0.3000000), wk =   0.0120000
        k(   83) = (  -0.1000000  -0.1000000   0.6000000), wk =   0.0240000
        k(   84) = (  -0.1000000   0.8000000  -0.3000000), wk =   0.0480000
        k(   85) = (  -0.2000000   0.8000000  -0.2000000), wk =   0.0080000
        k(   86) = (   0.6000000  -0.6000000   0.4000000), wk =   0.0080000
        k(   87) = (   0.5000000  -0.5000000   0.4000000), wk =   0.0120000
        k(   88) = (   0.0000000   0.0000000   0.6000000), wk =   0.0060000
        k(   89) = (   0.0000000  -0.1000000   0.7000000), wk =   0.0240000
        k(   90) = (   0.0000000   0.8000000  -0.2000000), wk =   0.0120000
        k(   91) = (  -0.1000000   0.9000000  -0.2000000), wk =   0.0240000
        k(   92) = (   0.0000000   0.0000000   0.8000000), wk =   0.0060000
        k(   93) = (   0.0000000   0.9000000  -0.1000000), wk =   0.0120000
        k(   94) = (   0.0000000   0.0000000  -1.0000000), wk =   0.0010000

     Dense  grid:     5425 G-vectors     FFT dimensions: (  24,  24,  24)

     Smooth grid:     3805 G-vectors     FFT dimensions: (  24,  24,  24)

     Largest allocated arrays     est. size (Mb)     dimensions
        Kohn-Sham Wavefunctions         0.09 Mb     (     490,   12)
        NL pseudopotentials             0.13 Mb     (     490,   18)
        Each V/rho on FFT grid          0.42 Mb     (   13824,   2)
        Each G-vector array             0.04 Mb     (    5425)
        G-vector shells                 0.00 Mb     (      88)
     Largest temporary arrays     est. size (Mb)     dimensions
        Auxiliary wavefunctions         0.36 Mb     (     490,   48)
        Each subspace H/S matrix        0.04 Mb     (      48,   48)
        Each <psi_i|beta_j> matrix      0.00 Mb     (      18,   12)
        Arrays for rho mixing           1.69 Mb     (   13824,    8)

     Check: negative/imaginary core charge=   -0.000436    0.000000

     Initial potential from superposition of free atoms

     starting charge   15.99956, renormalised to   16.00000
     Starting wfc are   13 randomized atomic wfcs

     total cpu time spent up to now is        2.2 secs

     Self-consistent Calculation

     iteration #  1     ecut=    50.00 Ry     beta=0.70
     Davidson diagonalization with overlap
     ethr =  1.00E-02,  avg # of iterations =  3.1

     negative rho (up, down):  0.000E+00 3.435E-04

     Magnetic moment per site:
     atom:    1    charge:   14.2940    magn:    5.6952    constr:    0.0000

     total cpu time spent up to now is        4.9 secs

     total energy              =    -328.99175105 Ry
     Harris-Foulkes estimate   =    -328.06393756 Ry
     estimated scf accuracy    <       1.51069446 Ry

     total magnetization       =     3.84 Bohr mag/cell
     absolute magnetization    =     3.88 Bohr mag/cell

     iteration #  2     ecut=    50.00 Ry     beta=0.70
     Davidson diagonalization with overlap
     ethr =  9.44E-03,  avg # of iterations =  1.2

     negative rho (up, down):  0.000E+00 3.711E-04

     Magnetic moment per site:
     atom:    1    charge:   14.5191    magn:    3.4986    constr:    0.0000

     total cpu time spent up to now is        7.2 secs

     total energy              =    -329.16162381 Ry
     Harris-Foulkes estimate   =    -329.10177094 Ry
     estimated scf accuracy    <       0.34156346 Ry

     total magnetization       =     3.08 Bohr mag/cell
     absolute magnetization    =     3.20 Bohr mag/cell

     iteration #  3     ecut=    50.00 Ry     beta=0.70
     Davidson diagonalization with overlap
     ethr =  2.13E-03,  avg # of iterations =  2.1

     negative rho (up, down):  0.000E+00 3.803E-04

     Magnetic moment per site:
     atom:    1    charge:   14.4036    magn:    2.5350    constr:    0.0000

     total cpu time spent up to now is        9.6 secs

     total energy              =    -329.18132221 Ry
     Harris-Foulkes estimate   =    -329.34250859 Ry
     estimated scf accuracy    <       0.46056381 Ry

     total magnetization       =     2.56 Bohr mag/cell
     absolute magnetization    =     2.70 Bohr mag/cell

     iteration #  4     ecut=    50.00 Ry     beta=0.70
     Davidson diagonalization with overlap
     ethr =  2.13E-03,  avg # of iterations =  2.0

     negative rho (up, down):  0.000E+00 2.168E-04

     Magnetic moment per site:
     atom:    1    charge:   14.4402    magn:    2.2689    constr:    0.0000

     total cpu time spent up to now is       11.9 secs

     total energy              =    -329.25784094 Ry
     Harris-Foulkes estimate   =    -329.25716300 Ry
     estimated scf accuracy    <       0.00222897 Ry

     total magnetization       =     2.33 Bohr mag/cell
     absolute magnetization    =     2.51 Bohr mag/cell

     iteration #  5     ecut=    50.00 Ry     beta=0.70
     Davidson diagonalization with overlap
     ethr =  1.39E-05,  avg # of iterations =  3.4

     negative rho (up, down):  0.000E+00 2.104E-04

     Magnetic moment per site:
     atom:    1    charge:   14.4283    magn:    2.2428    constr:    0.0000

     total cpu time spent up to now is       15.0 secs

     total energy              =    -329.26188252 Ry
     Harris-Foulkes estimate   =    -329.26150398 Ry
     estimated scf accuracy    <       0.00052007 Ry

     total magnetization       =     2.16 Bohr mag/cell
     absolute magnetization    =     2.31 Bohr mag/cell

     iteration #  6     ecut=    50.00 Ry     beta=0.70
     Davidson diagonalization with overlap
     ethr =  3.25E-06,  avg # of iterations =  1.3

     negative rho (up, down):  0.000E+00 1.167E-04

     Magnetic moment per site:
     atom:    1    charge:   14.4181    magn:    2.0631    constr:    0.0000

     total cpu time spent up to now is       17.0 secs

     total energy              =    -329.26119367 Ry
     Harris-Foulkes estimate   =    -329.26196613 Ry
     estimated scf accuracy    <       0.00029133 Ry

     total magnetization       =     2.13 Bohr mag/cell
     absolute magnetization    =     2.29 Bohr mag/cell

     iteration #  7     ecut=    50.00 Ry     beta=0.70
     Davidson diagonalization with overlap
     ethr =  1.82E-06,  avg # of iterations =  2.3

     negative rho (up, down):  0.000E+00 1.706E-04

     Magnetic moment per site:
     atom:    1    charge:   14.4242    magn:    2.1864    constr:    0.0000

     total cpu time spent up to now is       19.6 secs

     total energy              =    -329.26218994 Ry
     Harris-Foulkes estimate   =    -329.26182369 Ry
     estimated scf accuracy    <       0.00034425 Ry

     total magnetization       =     2.08 Bohr mag/cell
     absolute magnetization    =     2.21 Bohr mag/cell

     iteration #  8     ecut=    50.00 Ry     beta=0.70
     Davidson diagonalization with overlap
     ethr =  1.82E-06,  avg # of iterations =  1.8

     negative rho (up, down):  0.000E+00 1.714E-04

     Magnetic moment per site:
     atom:    1    charge:   14.4257    magn:    2.1869    constr:    0.0000

     total cpu time spent up to now is       21.9 secs

     total energy              =    -329.26233987 Ry
     Harris-Foulkes estimate   =    -329.26233357 Ry
     estimated scf accuracy    <       0.00001986 Ry

     total magnetization       =     2.11 Bohr mag/cell
     absolute magnetization    =     2.25 Bohr mag/cell

     iteration #  9     ecut=    50.00 Ry     beta=0.70
     Davidson diagonalization with overlap
     ethr =  1.24E-07,  avg # of iterations =  2.0

     negative rho (up, down):  0.000E+00 1.686E-04

     Magnetic moment per site:
     atom:    1    charge:   14.4255    magn:    2.1761    constr:    0.0000

     total cpu time spent up to now is       24.2 secs

     total energy              =    -329.26235365 Ry
     Harris-Foulkes estimate   =    -329.26234237 Ry
     estimated scf accuracy    <       0.00001581 Ry

     total magnetization       =     2.11 Bohr mag/cell
     absolute magnetization    =     2.25 Bohr mag/cell

     iteration # 10     ecut=    50.00 Ry     beta=0.70
     Davidson diagonalization with overlap
     ethr =  9.88E-08,  avg # of iterations =  1.0

     negative rho (up, down):  0.000E+00 1.643E-04

     Magnetic moment per site:
     atom:    1    charge:   14.4249    magn:    2.1643    constr:    0.0000

     total cpu time spent up to now is       26.2 secs

     total energy              =    -329.26235784 Ry
     Harris-Foulkes estimate   =    -329.26235551 Ry
     estimated scf accuracy    <       0.00000493 Ry

     total magnetization       =     2.11 Bohr mag/cell
     absolute magnetization    =     2.24 Bohr mag/cell

     iteration # 11     ecut=    50.00 Ry     beta=0.70
     Davidson diagonalization with overlap
     ethr =  3.08E-08,  avg # of iterations =  1.5

     negative rho (up, down):  0.000E+00 1.644E-04

     Magnetic moment per site:
     atom:    1    charge:   14.4249    magn:    2.1645    constr:    0.0000

     total cpu time spent up to now is       28.3 secs

     total energy              =    -329.26235974 Ry
     Harris-Foulkes estimate   =    -329.26235947 Ry
     estimated scf accuracy    <       0.00000008 Ry

     total magnetization       =     2.11 Bohr mag/cell
     absolute magnetization    =     2.24 Bohr mag/cell

     iteration # 12     ecut=    50.00 Ry     beta=0.70
     Davidson diagonalization with overlap
     ethr =  5.01E-10,  avg # of iterations =  3.0

     negative rho (up, down):  0.000E+00 1.641E-04

     Magnetic moment per site:
     atom:    1    charge:   14.4249    magn:    2.1640    constr:    0.0000

     total cpu time spent up to now is       30.9 secs

     total energy              =    -329.26235984 Ry
     Harris-Foulkes estimate   =    -329.26235977 Ry
     estimated scf accuracy    <       0.00000011 Ry

     total magnetization       =     2.11 Bohr mag/cell
     absolute magnetization    =     2.24 Bohr mag/cell

     iteration # 13     ecut=    50.00 Ry     beta=0.70
     Davidson diagonalization with overlap
     ethr =  5.01E-10,  avg # of iterations =  1.1

     negative rho (up, down):  0.000E+00 1.632E-04

     Magnetic moment per site:
     atom:    1    charge:   14.4248    magn:    2.1622    constr:    0.0000

     total cpu time spent up to now is       33.2 secs

     total energy              =    -329.26235976 Ry
     Harris-Foulkes estimate   =    -329.26235985 Ry
     estimated scf accuracy    <       0.00000005 Ry

     total magnetization       =     2.11 Bohr mag/cell
     absolute magnetization    =     2.24 Bohr mag/cell

     iteration # 14     ecut=    50.00 Ry     beta=0.70
     Davidson diagonalization with overlap
     ethr =  3.29E-10,  avg # of iterations =  2.0

     negative rho (up, down):  0.000E+00 1.637E-04

     Magnetic moment per site:
     atom:    1    charge:   14.4248    magn:    2.1627    constr:    0.0000

     total cpu time spent up to now is       35.6 secs

     total energy              =    -329.26235991 Ry
     Harris-Foulkes estimate   =    -329.26235982 Ry
     estimated scf accuracy    <       0.00000003 Ry

     total magnetization       =     2.11 Bohr mag/cell
     absolute magnetization    =     2.24 Bohr mag/cell

     iteration # 15     ecut=    50.00 Ry     beta=0.70
     Davidson diagonalization with overlap
     ethr =  1.83E-10,  avg # of iterations =  1.4

     negative rho (up, down):  0.000E+00 1.637E-04

     Magnetic moment per site:
     atom:    1    charge:   14.4248    magn:    2.1627    constr:    0.0000

     total cpu time spent up to now is       37.6 secs

     End of self-consistent calculation

 ------ SPIN UP ------------


          k = 0.0000 0.0000 0.0000 (   459 PWs)   bands (ev):

   -70.5871 -36.4116 -36.4116 -36.4116   9.1582  15.3067  15.3067  15.3067
    16.2641  16.2641  41.9931  41.9931

          k = 0.0000-0.1000 0.1000 (   471 PWs)   bands (ev):

   -70.5812 -36.4481 -36.4238 -36.4120   9.5603  15.2009  15.2899  15.5181
    16.1741  16.2730  39.5738  41.3011

          k = 0.0000-0.2000 0.2000 (   475 PWs)   bands (ev):

   -70.5646 -36.5402 -36.4551 -36.4124  10.6719  14.9307  15.1579  16.0995
    16.1193  16.3040  35.1642  39.3184

          k = 0.0000-0.3000 0.3000 (   479 PWs)   bands (ev):

   -70.5439 -36.6529 -36.4933 -36.4128  12.0414  14.6099  15.2434  16.2709
    16.3579  16.8865  30.5606  37.3004

          k = 0.0000-0.4000 0.4000 (   476 PWs)   bands (ev):

   -70.5270 -36.7425 -36.5237 -36.4129  12.6529  14.3600  16.2106  16.4149
    16.8117  17.5947  26.5238  35.9355

          k = 0.0000 0.5000-0.5000 (   476 PWs)   bands (ev):

   -70.5206 -36.7761 -36.5352 -36.4129  12.6993  14.2667  16.3935  16.4401
    17.8865  17.9801  24.4748  35.4558

          k =-0.1000-0.1000 0.2000 (   475 PWs)   bands (ev):

   -70.5698 -36.5117 -36.4371 -36.4209  10.3220  15.0686  15.1177  15.9588
    16.0613  16.3276  37.1554  38.3247

          k =-0.1000-0.2000 0.3000 (   476 PWs)   bands (ev):

   -70.5510 -36.6073 -36.4745 -36.4248  11.6375  14.7643  14.9320  16.0875
    16.4134  16.7447  33.0033  36.0156

          k =-0.1000-0.3000 0.4000 (   474 PWs)   bands (ev):

   -70.5321 -36.7008 -36.5154 -36.4255  12.7075  14.4807  15.2657  16.2980
    16.5446  17.7615  28.5997  34.5084

          k =-0.1000 0.6000-0.5000 (   475 PWs)   bands (ev):

   -70.5206 -36.7571 -36.5415 -36.4259  12.8945  14.3226  15.9249  16.3762
    17.0350  19.0427  25.1593  33.6761

          k =-0.2000-0.2000 0.4000 (   481 PWs)   bands (ev):

   -70.5344 -36.6753 -36.5124 -36.4412  12.8418  14.4531  14.8159  16.1474
    16.5544  17.8995  30.9787  31.7660

          k =-0.2000 0.7000-0.5000 (   478 PWs)   bands (ev):

   -70.5207 -36.7187 -36.5608 -36.4470  13.4002  14.3238  15.0273  16.3273
    16.7362  19.6293  27.1398  30.2578

          k =-0.2000 0.6000-0.4000 (   474 PWs)   bands (ev):

   -70.5153 -36.7317 -36.5829 -36.4483  13.3994  14.3359  15.1984  16.3990
    16.9054  21.2188  24.6901  29.8275

          k =-0.3000 0.7000-0.4000 (   475 PWs)   bands (ev):

   -70.5134 -36.6961 -36.6247 -36.4571  13.8780  14.2632  14.7068  16.5136
    16.7437  22.2568  25.6427  27.0650

          k = 0.0000 0.0000 0.2000 (   470 PWs)   bands (ev):

   -70.5749 -36.4576 -36.4358 -36.4358   9.9495  15.3144  15.3144  15.5201
    15.9258  16.3962  38.7570  40.6482

          k = 0.0000-0.1000 0.3000 (   474 PWs)   bands (ev):

   -70.5587 -36.5400 -36.4676 -36.4411  11.0216  15.1246  15.1770  15.7799
    16.0476  16.5245  35.3874  38.3825

          k = 0.0000-0.2000 0.4000 (   474 PWs)   bands (ev):

   -70.5384 -36.6477 -36.5063 -36.4400  12.3258  14.8311  14.9314  16.0846
    16.7826  16.8413  30.8453  36.6426

          k = 0.0000-0.3000 0.5000 (   474 PWs)   bands (ev):

   -70.5220 -36.7344 -36.5372 -36.4383  12.8886  14.5989  15.2251  16.2568
    17.5627  17.9457  26.7298  35.6326

          k = 0.0000 0.6000-0.4000 (   472 PWs)   bands (ev):

   -70.5157 -36.7667 -36.5488 -36.4375  12.9139  14.5118  15.4664  16.2353
    17.8615  19.2493  24.5356  35.0940

          k =-0.1000-0.1000 0.4000 (   470 PWs)   bands (ev):

   -70.5407 -36.6112 -36.5033 -36.4602  12.1889  14.7611  15.1620  15.7856
    16.5656  16.9056  33.2235  34.1593

          k =-0.1000-0.2000 0.5000 (   475 PWs)   bands (ev):

   -70.5230 -36.6913 -36.5469 -36.4632  13.1224  14.4395  15.0386  16.0904
    16.9769  18.1801  29.1128  32.2481

          k =-0.1000 0.7000-0.4000 (   470 PWs)   bands (ev):

   -70.5118 -36.7403 -36.5746 -36.4624  13.2620  14.6087  14.8742  16.2163
    17.4606  20.1767  25.4429  31.3887

          k =-0.2000 0.2000 0.2000 (   477 PWs)   bands (ev):

   -70.5558 -36.5935 -36.4400 -36.4400  11.3731  14.7778  14.7778  16.2462
    16.2462  16.7619  35.1687  35.1687

          k =-0.2000 0.8000-0.4000 (   468 PWs)   bands (ev):

   -70.5102 -36.7106 -36.6045 -36.4713  13.7494  14.0377  14.8971  16.3739
    17.0869  20.4761  27.5203  28.3903

          k =-0.2000 0.7000-0.3000 (   474 PWs)   bands (ev):

   -70.5057 -36.7095 -36.6379 -36.4732  13.7764  14.2987  14.5419  16.5777
    17.1362  22.7218  24.8842  27.6604

          k =-0.3000 0.3000 0.2000 (   477 PWs)   bands (ev):

   -70.5385 -36.6712 -36.4861 -36.4428  12.7076  14.4762  14.6317  16.2937
    16.3678  17.8679  31.0279  33.5792

          k = 0.6000-0.6000 0.2000 (   488 PWs)   bands (ev):

   -70.5250 -36.7235 -36.5349 -36.4457  13.2334  14.2765  15.3545  16.3991
    16.4316  19.3496  26.9232  32.5358

          k = 0.6000-0.7000 0.3000 (   480 PWs)   bands (ev):

   -70.5261 -36.7030 -36.5227 -36.4685  13.6864  14.2841  14.5558  16.3730
    16.4571  19.4820  29.2980  29.9858

          k = 0.5000-0.5000 0.2000 (   480 PWs)   bands (ev):

   -70.5193 -36.7404 -36.5550 -36.4460  13.2212  14.2077  15.9370  16.4405
    16.4515  20.6497  24.6316  32.1866

          k = 0.5000-0.6000 0.3000 (   482 PWs)   bands (ev):

   -70.5184 -36.7001 -36.5750 -36.4771  13.7635  14.2341  15.0374  16.4552
    16.5108  21.6588  25.8218  28.9332

          k = 0.4000-0.6000 0.4000 (   475 PWs)   bands (ev):

   -70.5157 -36.6407 -36.6407 -36.4885  13.9505  14.5664  14.5664  16.5145
    16.5145  24.4299  24.4299  26.5830

          k = 0.0000 0.0000 0.4000 (   470 PWs)   bands (ev):

   -70.5433 -36.5548 -36.4999 -36.4999  11.9456  15.0307  15.4934  15.4934
    16.0871  16.8541  35.5824  36.3824

          k = 0.0000-0.1000 0.5000 (   469 PWs)   bands (ev):

   -70.5243 -36.6353 -36.5398 -36.5099  12.9483  14.4487  15.4310  15.8523
    16.7431  17.5844  31.6607  34.3062

          k = 0.0000-0.2000 0.6000 (   480 PWs)   bands (ev):

   -70.5094 -36.7128 -36.5725 -36.5065  13.3278  14.2275  15.2692  16.0611
    17.4804  19.4270  27.3861  32.7990

          k = 0.0000 0.7000-0.3000 (   472 PWs)   bands (ev):

   -70.5033 -36.7421 -36.5843 -36.5039  13.2885  14.2948  15.2037  16.0785
    17.7963  21.2933  24.7775  32.2553

          k =-0.1000-0.1000 0.6000 (   476 PWs)   bands (ev):

   -70.5082 -36.6811 -36.5883 -36.5270  13.4531  13.9428  15.5090  16.1823
    17.1363  19.2676  29.8845  30.3852

          k =-0.1000 0.8000-0.3000 (   473 PWs)   bands (ev):

   -70.4980 -36.7141 -36.6230 -36.5263  13.4840  13.8232  15.3503  16.4814
    17.5029  21.8735  26.1506  29.2485

          k =-0.2000 0.8000-0.2000 (   469 PWs)   bands (ev):

   -70.4936 -36.6814 -36.6814 -36.5279  13.6084  13.6084  15.2453  17.1399
    17.1399  24.7974  24.7974  26.6991

          k = 0.6000-0.6000 0.4000 (   477 PWs)   bands (ev):

   -70.5192 -36.6846 -36.5312 -36.5312  14.2356  14.2356  14.5066  16.4574
    16.4574  21.6688  28.2511  28.2511

          k = 0.5000-0.5000 0.4000 (   474 PWs)   bands (ev):

   -70.5165 -36.6471 -36.5851 -36.5348  14.2072  14.2334  14.7261  16.4701
    16.4777  24.0031  25.4329  27.8912

          k = 0.0000 0.0000 0.6000 (   478 PWs)   bands (ev):

   -70.5074 -36.6360 -36.5819 -36.5819  13.3139  13.9260  16.0920  16.0920
    16.8047  18.8729  32.0011  32.0011

          k = 0.0000-0.1000 0.7000 (   470 PWs)   bands (ev):

   -70.4931 -36.6856 -36.6152 -36.5888  13.3339  13.5007  16.2153  16.4379
    17.3871  21.1381  28.4233  30.3659

          k = 0.0000 0.8000-0.2000 (   470 PWs)   bands (ev):

   -70.4878 -36.7115 -36.6280 -36.5851  13.2257  13.4231  16.1964  16.5455
    17.7163  23.5621  25.3919  29.7447

          k =-0.1000 0.9000-0.2000 (   472 PWs)   bands (ev):

   -70.4841 -36.6919 -36.6589 -36.5979  13.1884  13.2003  16.3081  17.0814
    17.5240  23.8253  27.0889  27.6518

          k = 0.0000 0.0000 0.8000 (   482 PWs)   bands (ev):

   -70.4807 -36.6708 -36.6505 -36.6505  13.0276  13.0489  17.0517  17.0517
    17.3982  23.3276  28.5566  28.5566

          k = 0.0000 0.9000-0.1000 (   478 PWs)   bands (ev):

   -70.4757 -36.6866 -36.6633 -36.6519  12.8809  12.8957  17.1807  17.2986
    17.6521  25.8316  26.4054  27.8744

          k = 0.0000 0.0000-1.0000 (   490 PWs)   bands (ev):

   -70.4713 -36.6774 -36.6774 -36.6774  12.7197  12.7197  17.6277  17.6277
    17.6277  27.1148  27.1148  27.1148

 ------ SPIN DOWN ----------


          k = 0.0000 0.0000 0.0000 (   459 PWs)   bands (ev):

   -68.0258 -33.8960 -33.8960 -33.8960   9.3001  16.9775  16.9775  16.9775
    19.2386  19.2386  41.7154  41.7154

          k = 0.0000-0.1000 0.1000 (   471 PWs)   bands (ev):

   -68.0193 -33.9362 -33.9093 -33.8964   9.7048  16.8520  16.9522  17.2063
    19.1045  19.2485  39.6554  41.1809

          k = 0.0000-0.2000 0.2000 (   475 PWs)   bands (ev):

   -68.0012 -34.0385 -33.9436 -33.8968  10.8425  16.5336  16.8214  17.8391
    18.8942  19.2870  35.6188  39.3923

          k = 0.0000-0.3000 0.3000 (   479 PWs)   bands (ev):

   -67.9788 -34.1635 -33.9853 -33.8973  12.4156  16.1591  16.7014  18.7050
    18.8688  19.3610  31.2734  37.3895

          k = 0.0000-0.4000 0.4000 (   476 PWs)   bands (ev):

   -67.9603 -34.2629 -34.0188 -33.8972  13.6140  15.8698  17.2644  18.9628
    19.4441  19.4963  27.5202  35.9859

          k = 0.0000 0.5000-0.5000 (   476 PWs)   bands (ev):

   -67.9533 -34.3003 -34.0313 -33.8972  13.9103  15.7622  18.0512  19.0054
    19.4819  19.8267  25.7466  35.4854

          k =-0.1000-0.1000 0.2000 (   475 PWs)   bands (ev):

   -68.0068 -34.0069 -33.9238 -33.9061  10.4781  16.6926  16.7764  17.6753
    18.9014  19.3012  37.4473  38.5798

          k =-0.1000-0.2000 0.3000 (   476 PWs)   bands (ev):

   -67.9865 -34.1131 -33.9649 -33.9104  11.8725  16.3497  16.5571  18.4895
    18.7641  19.3980  33.5754  36.3687

          k =-0.1000-0.3000 0.4000 (   474 PWs)   bands (ev):

   -67.9659 -34.2166 -34.0100 -33.9112  13.3729  16.0079  16.5840  18.8386
    19.3318  19.6340  29.4134  34.8658

          k =-0.1000 0.6000-0.5000 (   475 PWs)   bands (ev):

   -67.9533 -34.2791 -34.0387 -33.9116  14.0702  15.8121  17.2362  18.9582
    19.5132  20.4660  26.2915  34.0180

          k =-0.2000-0.2000 0.4000 (   481 PWs)   bands (ev):

   -67.9684 -34.1882 -34.0068 -33.9283  13.3049  16.1104  16.2377  18.7243
    19.2988  19.7833  31.6540  32.3208

          k =-0.2000 0.7000-0.5000 (   478 PWs)   bands (ev):

   -67.9534 -34.2361 -34.0604 -33.9348  14.4372  15.8593  16.3247  18.8639
    19.4178  21.1337  28.0068  30.8551

          k =-0.2000 0.6000-0.4000 (   474 PWs)   bands (ev):

   -67.9476 -34.2507 -34.0849 -33.9362  14.6911  15.8081  16.5789  18.9684
    19.4259  22.3421  25.8223  30.4167

          k =-0.3000 0.7000-0.4000 (   475 PWs)   bands (ev):

   -67.9455 -34.2109 -34.1315 -33.9458  15.1593  15.7803  16.1037  19.0362
    19.3034  23.4038  26.5653  27.8184

          k = 0.0000 0.0000 0.2000 (   470 PWs)   bands (ev):

   -68.0124 -33.9472 -33.9225 -33.9225  10.0994  16.9621  16.9621  17.2112
    18.7829  19.4015  38.8772  40.7614

          k = 0.0000-0.1000 0.3000 (   474 PWs)   bands (ev):

   -67.9948 -34.0384 -33.9573 -33.9284  11.2093  16.7364  16.8950  17.7815
    18.4038  19.5237  35.8514  38.6388

          k = 0.0000-0.2000 0.4000 (   474 PWs)   bands (ev):

   -67.9728 -34.1577 -33.9998 -33.9272  12.7404  16.3943  16.6763  18.4129
    18.6536  19.6503  31.5542  36.9079

          k = 0.0000-0.3000 0.5000 (   474 PWs)   bands (ev):

   -67.9550 -34.2537 -34.0337 -33.9254  13.9147  16.1253  16.8259  18.6491
    19.4601  20.0391  27.6999  35.7501

          k = 0.0000 0.6000-0.4000 (   472 PWs)   bands (ev):

   -67.9481 -34.2896 -34.0466 -33.9246  14.2049  16.0249  17.1638  18.7085
    19.7990  20.6376  25.7732  35.3390

          k =-0.1000-0.1000 0.4000 (   470 PWs)   bands (ev):

   -67.9753 -34.1174 -33.9967 -33.9494  12.5130  16.6327  16.7168  18.1093
    18.4189  19.7143  33.8485  34.6566

          k =-0.1000-0.2000 0.5000 (   475 PWs)   bands (ev):

   -67.9560 -34.2057 -34.0447 -33.9528  13.9064  16.2408  16.5792  18.2984
    19.1610  20.2418  29.9034  32.8192

          k =-0.1000 0.7000-0.4000 (   470 PWs)   bands (ev):

   -67.9438 -34.2600 -34.0753 -33.9519  14.5980  16.1984  16.5114  18.5231
    19.5255  21.5859  26.5046  31.9543

          k =-0.2000 0.2000 0.2000 (   477 PWs)   bands (ev):

   -67.9917 -34.0976 -33.9270 -33.9270  11.5602  16.3833  16.3833  18.5020
    19.1266  19.1266  35.5561  35.5561

          k =-0.2000 0.8000-0.4000 (   468 PWs)   bands (ev):

   -67.9422 -34.2271 -34.1087 -33.9617  14.9538  15.8445  16.4727  18.5244
    19.2886  21.9467  28.4219  29.0589

          k =-0.2000 0.7000-0.3000 (   474 PWs)   bands (ev):

   -67.9372 -34.2255 -34.1457 -33.9636  15.3303  15.9949  16.0782  18.7542
    19.2595  23.8413  25.9401  28.3878

          k =-0.3000 0.3000 0.2000 (   477 PWs)   bands (ev):

   -67.9729 -34.1836 -33.9779 -33.9302  13.0701  15.9986  16.1327  19.0683
    19.3228  19.5670  31.6568  33.9815

          k = 0.6000-0.6000 0.2000 (   488 PWs)   bands (ev):

   -67.9579 -34.2415 -34.0315 -33.9334  14.2163  15.7342  16.3934  19.1199
    19.4518  20.7972  27.8030  32.9194

          k = 0.6000-0.7000 0.3000 (   480 PWs)   bands (ev):

   -67.9593 -34.2187 -34.0186 -33.9586  14.4113  15.7611  15.8415  19.1811
    19.4197  20.9771  29.9725  30.5888

          k = 0.5000-0.5000 0.2000 (   480 PWs)   bands (ev):

   -67.9518 -34.2604 -34.0538 -33.9338  14.4483  15.6418  16.8779  19.1568
    19.4977  21.7137  25.7903  32.5561

          k = 0.5000-0.6000 0.3000 (   482 PWs)   bands (ev):

   -67.9509 -34.2156 -34.0764 -33.9681  14.9742  15.6196  16.1394  19.2639
    19.4742  22.7717  26.7187  29.5481

          k = 0.4000-0.6000 0.4000 (   475 PWs)   bands (ev):

   -67.9480 -34.1497 -34.1497 -33.9807  15.2459  15.8256  15.8256  19.3941
    19.3941  25.3093  25.3093  27.3739

          k = 0.0000 0.0000 0.4000 (   470 PWs)   bands (ev):

   -67.9781 -34.0555 -33.9930 -33.9930  12.2277  17.1084  17.1084  17.5963
    17.8342  19.7608  36.1103  36.8685

          k = 0.0000-0.1000 0.5000 (   469 PWs)   bands (ev):

   -67.9575 -34.1441 -34.0368 -34.0044  13.5711  16.6272  17.0320  17.7122
    18.5458  20.0861  32.3443  34.8219

          k = 0.0000-0.2000 0.6000 (   480 PWs)   bands (ev):

   -67.9412 -34.2293 -34.0727 -34.0006  14.5991  16.1398  16.8473  18.1040
    19.3675  21.1189  28.2667  33.2927

          k = 0.0000 0.7000-0.3000 (   472 PWs)   bands (ev):

   -67.9346 -34.2616 -34.0858 -33.9978  14.8702  16.0968  16.7722  18.1688
    19.7270  22.4854  25.8921  32.7244

          k =-0.1000-0.1000 0.6000 (   476 PWs)   bands (ev):

   -67.9400 -34.1942 -34.0903 -34.0231  14.6060  16.0381  17.1506  17.9950
    19.0590  21.0397  30.6680  30.9665

          k =-0.1000 0.8000-0.3000 (   473 PWs)   bands (ev):

   -67.9288 -34.2303 -34.1288 -34.0224  15.1877  15.6928  16.9435  18.3788
    19.4403  23.0841  27.0576  29.8791

          k =-0.2000 0.8000-0.2000 (   469 PWs)   bands (ev):

   -67.9240 -34.1938 -34.1938 -34.0241  15.4933  15.4933  16.7364  19.0590
    19.0590  25.7690  25.7690  27.4049

          k = 0.6000-0.6000 0.4000 (   477 PWs)   bands (ev):

   -67.9519 -34.1981 -34.0283 -34.0283  15.3996  15.5807  15.5807  19.4419
    19.4419  22.8272  28.9037  28.9037

          k = 0.5000-0.5000 0.4000 (   474 PWs)   bands (ev):

   -67.9490 -34.1569 -34.0880 -34.0322  15.4329  15.5277  15.8614  19.4631
    19.5234  24.8507  26.2909  28.5326

          k = 0.0000 0.0000 0.6000 (   478 PWs)   bands (ev):

   -67.9392 -34.1449 -34.0831 -34.0831  14.4466  16.1776  17.7322  17.7322
    18.6267  20.7769  32.5068  32.5068

          k = 0.0000-0.1000 0.7000 (   470 PWs)   bands (ev):

   -67.9236 -34.1988 -34.1200 -34.0913  14.9701  15.5731  17.8831  18.1705
    19.2644  22.3934  29.1006  30.8189

          k = 0.0000 0.8000-0.2000 (   470 PWs)   bands (ev):

   -67.9178 -34.2269 -34.1341 -34.0874  15.1500  15.3105  17.8667  18.3040
    19.6387  24.4880  26.2495  30.1611

          k =-0.1000 0.9000-0.2000 (   472 PWs)   bands (ev):

   -67.9137 -34.2051 -34.1683 -34.1012  15.0741  15.1866  17.9645  18.8918
    19.4208  24.7072  27.7758  28.1778

          k = 0.0000 0.0000 0.8000 (   482 PWs)   bands (ev):

   -67.9101 -34.1820 -34.1587 -34.1587  14.8799  15.0866  18.8259  18.8259
    19.2854  24.1519  28.9257  28.9257

          k = 0.0000 0.9000-0.1000 (   478 PWs)   bands (ev):

   -67.9046 -34.1988 -34.1729 -34.1605  14.8402  14.8579  18.9987  19.1246
    19.5678  26.3840  26.8867  28.1814

          k = 0.0000 0.0000-1.0000 (   490 PWs)   bands (ev):

   -67.9000 -34.1883 -34.1883 -34.1883  14.6845  14.6845  19.5409  19.5409
    19.5409  27.3424  27.3424  27.3424

     the Fermi energy is    17.4594 ev

!    total energy              =    -329.26235991 Ry
     Harris-Foulkes estimate   =    -329.26235991 Ry
     estimated scf accuracy    <          6.6E-11 Ry

     total all-electron energy =     -2545.558895 Ry

     The total energy is the sum of the following terms:

     one-electron contribution =    -113.03100966 Ry
     hartree contribution      =      66.60581513 Ry
     xc contribution           =     -34.79867223 Ry
     ewald contribution        =    -171.88999319 Ry
     one-center paw contrib.   =     -76.15010544 Ry
     smearing contrib. (-TS)   =       0.00160549 Ry

     total magnetization       =     2.11 Bohr mag/cell
     absolute magnetization    =     2.24 Bohr mag/cell

     convergence has been achieved in  15 iterations

     Forces acting on atoms (Ry/au):


     negative rho (up, down):  0.000E+00 1.637E-04
     atom    1 type  1   force =     0.00000000    0.00000000    0.00000000

     Total force =     0.000000     Total SCF correction =     0.000000


     entering subroutine stress ...


     negative rho (up, down):  0.000E+00 1.637E-04
          total   stress  (Ry/bohr**3)                   (kbar)     P= -164.56
  -0.00111866  -0.00000000   0.00000000       -164.56     -0.00      0.00
  -0.00000000  -0.00111866  -0.00000000         -0.00   -164.56     -0.00
   0.00000000  -0.00000000  -0.00111866          0.00     -0.00   -164.56


     Writing output data file Fe_bcc.save

     init_run     :      1.77s CPU      1.84s WALL (       1 calls)
     electrons    :     35.07s CPU     35.40s WALL (       1 calls)
     forces       :      0.14s CPU      0.15s WALL (       1 calls)
     stress       :      0.52s CPU      0.52s WALL (       1 calls)

     Called by init_run:
     wfcinit      :      0.72s CPU      0.74s WALL (       1 calls)
     potinit      :      0.52s CPU      0.55s WALL (       1 calls)

     Called by electrons:
     c_bands      :     23.14s CPU     23.24s WALL (      15 calls)
     sum_band     :      4.33s CPU      4.38s WALL (      15 calls)
     v_of_rho     :      0.34s CPU      0.35s WALL (      16 calls)
     newd         :      0.23s CPU      0.24s WALL (      16 calls)
     mix_rho      :      0.04s CPU      0.05s WALL (      15 calls)

     Called by c_bands:
     init_us_2    :      0.51s CPU      0.52s WALL (    3102 calls)
     cegterg      :     22.11s CPU     22.19s WALL (    1410 calls)

     Called by *egterg:
     h_psi        :     19.04s CPU     19.24s WALL (    4246 calls)
     s_psi        :      0.49s CPU      0.40s WALL (    4246 calls)
     g_psi        :      0.11s CPU      0.11s WALL (    2742 calls)
     cdiaghg      :      1.15s CPU      1.16s WALL (    4152 calls)

     Called by h_psi:
     add_vuspsi   :      0.50s CPU      0.43s WALL (    4246 calls)

     General routines
     calbec       :      0.55s CPU      0.56s WALL (    5844 calls)
     fft          :      0.18s CPU      0.18s WALL (     530 calls)
     ffts         :      0.02s CPU      0.02s WALL (      62 calls)
     fftw         :     19.55s CPU     19.78s WALL (   98094 calls)
     interpolate  :      0.05s CPU      0.05s WALL (      62 calls)
     davcio       :      0.00s CPU      0.00s WALL (      94 calls)


     PAW routines
     PAW_pot      :      7.48s CPU      7.64s WALL (      16 calls)
     PAW_symme    :      0.02s CPU      0.02s WALL (      31 calls)

     PWSCF        :    38.04s CPU        38.54s WALL


   This run was terminated on:  10:29:33  11May2015            

=------------------------------------------------------------------------------=
   JOB DONE.
=------------------------------------------------------------------------------=
