
     Program PWSCF v.5.1.2 starts on 11May2015 at 10:21:19 

     This program is part of the open-source Quantum ESPRESSO suite
     for quantum simulation of materials; please cite
         "P. Giannozzi et al., J. Phys.:Condens. Matter 21 395502 (2009);
          URL http://www.quantum-espresso.org", 
     in publications or presentations arising from this work. More details at
     http://www.quantum-espresso.org/quote

     Serial version
     Reading input from Fe_bcc_5.38_9.pw.in

     Current dimensions of program PWSCF are:
     Max number of different atomic species (ntypx) = 10
     Max number of k-points (npk) =  40000
     Max angular momentum in pseudopotentials (lmaxx) =  3
               file Fe.pbe-spn-kjpaw_psl.0.2.1.UPF: wavefunction(s)  3D renormalized

     G-vector sticks info
     --------------------
     sticks:   dense  smooth     PW     G-vecs:    dense   smooth      PW
     Sum         411     333    103                 5233     3781     683

     Generating pointlists ...
     new r_m :   0.3572 (alat units)  1.9219 (a.u.) for type    1


     bravais-lattice index     =            3
     lattice parameter (alat)  =       5.3800  a.u.
     unit-cell volume          =      77.8604 (a.u.)^3
     number of atoms/cell      =            1
     number of atomic types    =            1
     number of electrons       =        16.00
     number of Kohn-Sham states=           12
     kinetic-energy cutoff     =      50.0000  Ry
     charge density cutoff     =     250.0000  Ry
     convergence threshold     =      1.0E-08
     mixing beta               =       0.7000
     number of iterations used =            8  plain     mixing
     Exchange-correlation      =  SLA  PW   PBX  PBC ( 1  4  3  4 0 0)

     celldm(1)=   5.380000  celldm(2)=   0.000000  celldm(3)=   0.000000
     celldm(4)=   0.000000  celldm(5)=   0.000000  celldm(6)=   0.000000

     crystal axes: (cart. coord. in units of alat)
               a(1) = (   0.500000   0.500000   0.500000 )  
               a(2) = (  -0.500000   0.500000   0.500000 )  
               a(3) = (  -0.500000  -0.500000   0.500000 )  

     reciprocal axes: (cart. coord. in units 2 pi/alat)
               b(1) = (  1.000000  0.000000  1.000000 )  
               b(2) = ( -1.000000  1.000000  0.000000 )  
               b(3) = (  0.000000 -1.000000  1.000000 )  


     PseudoPot. # 1 for Fe read from file:
     ./Fe.pbe-spn-kjpaw_psl.0.2.1.UPF
     MD5 check sum: a0a08122d52b112de96d1da1d7dd020f
     Pseudo is Projector augmented-wave + core cor, Zval = 16.0
     Generated using "atomic" code by A. Dal Corso  v.5.0.2 svn rev. 9415
     Shape of augmentation charge: PSQ
     Using radial grid of 1191 points,  6 beta functions with: 
                l(1) =   0
                l(2) =   0
                l(3) =   1
                l(4) =   1
                l(5) =   2
                l(6) =   2
     Q(r) pseudized with 0 coefficients 


     atomic species   valence    mass     pseudopotential
        Fe            16.00    55.85000     Fe( 1.00)

     Starting magnetic structure 
     atomic species   magnetization
        Fe           0.700

     48 Sym. Ops., with inversion, found



   Cartesian axes

     site n.     atom                  positions (alat units)
         1           Fe  tau(   1) = (   0.0000000   0.0000000   0.0000000  )

     number of k points=    70  Marzari-Vanderbilt smearing, width (Ry)=  0.0250
                       cart. coord. in units 2pi/alat
        k(    1) = (   0.0000000   0.0000000   0.0000000), wk =   0.0013717
        k(    2) = (   0.0000000  -0.1111111   0.1111111), wk =   0.0164609
        k(    3) = (   0.0000000  -0.2222222   0.2222222), wk =   0.0164609
        k(    4) = (   0.0000000  -0.3333333   0.3333333), wk =   0.0164609
        k(    5) = (   0.0000000  -0.4444444   0.4444444), wk =   0.0164609
        k(    6) = (  -0.1111111  -0.1111111   0.2222222), wk =   0.0329218
        k(    7) = (  -0.1111111  -0.2222222   0.3333333), wk =   0.0658436
        k(    8) = (  -0.1111111  -0.3333333   0.4444444), wk =   0.0658436
        k(    9) = (  -0.1111111   0.5555556  -0.4444444), wk =   0.0329218
        k(   10) = (  -0.2222222  -0.2222222   0.4444444), wk =   0.0329218
        k(   11) = (  -0.2222222   0.6666667  -0.4444444), wk =   0.0658436
        k(   12) = (  -0.3333333   0.6666667  -0.3333333), wk =   0.0109739
        k(   13) = (   0.0000000   0.0000000   0.2222222), wk =   0.0082305
        k(   14) = (   0.0000000  -0.1111111   0.3333333), wk =   0.0329218
        k(   15) = (   0.0000000  -0.2222222   0.4444444), wk =   0.0329218
        k(   16) = (   0.0000000  -0.3333333   0.5555556), wk =   0.0329218
        k(   17) = (  -0.1111111  -0.1111111   0.4444444), wk =   0.0329218
        k(   18) = (  -0.1111111  -0.2222222   0.5555556), wk =   0.0658436
        k(   19) = (  -0.1111111   0.6666667  -0.3333333), wk =   0.0329218
        k(   20) = (  -0.2222222   0.2222222   0.2222222), wk =   0.0109739
        k(   21) = (  -0.2222222   0.7777778  -0.3333333), wk =   0.0329218
        k(   22) = (  -0.3333333   0.3333333   0.2222222), wk =   0.0329218
        k(   23) = (   0.5555556  -0.5555556   0.2222222), wk =   0.0329218
        k(   24) = (   0.5555556  -0.6666667   0.3333333), wk =   0.0329218
        k(   25) = (   0.4444444  -0.5555556   0.3333333), wk =   0.0329218
        k(   26) = (   0.0000000   0.0000000   0.4444444), wk =   0.0082305
        k(   27) = (   0.0000000  -0.1111111   0.5555556), wk =   0.0329218
        k(   28) = (   0.0000000  -0.2222222   0.6666667), wk =   0.0329218
        k(   29) = (  -0.1111111  -0.1111111   0.6666667), wk =   0.0329218
        k(   30) = (  -0.1111111   0.7777778  -0.2222222), wk =   0.0329218
        k(   31) = (   0.5555556  -0.5555556   0.4444444), wk =   0.0109739
        k(   32) = (   0.0000000   0.0000000   0.6666667), wk =   0.0082305
        k(   33) = (   0.0000000  -0.1111111   0.7777778), wk =   0.0329218
        k(   34) = (  -0.1111111   0.8888889  -0.1111111), wk =   0.0109739
        k(   35) = (   0.0000000   0.0000000   0.8888889), wk =   0.0082305
        k(   36) = (   0.0000000   0.0000000   0.0000000), wk =   0.0013717
        k(   37) = (   0.0000000  -0.1111111   0.1111111), wk =   0.0164609
        k(   38) = (   0.0000000  -0.2222222   0.2222222), wk =   0.0164609
        k(   39) = (   0.0000000  -0.3333333   0.3333333), wk =   0.0164609
        k(   40) = (   0.0000000  -0.4444444   0.4444444), wk =   0.0164609
        k(   41) = (  -0.1111111  -0.1111111   0.2222222), wk =   0.0329218
        k(   42) = (  -0.1111111  -0.2222222   0.3333333), wk =   0.0658436
        k(   43) = (  -0.1111111  -0.3333333   0.4444444), wk =   0.0658436
        k(   44) = (  -0.1111111   0.5555556  -0.4444444), wk =   0.0329218
        k(   45) = (  -0.2222222  -0.2222222   0.4444444), wk =   0.0329218
        k(   46) = (  -0.2222222   0.6666667  -0.4444444), wk =   0.0658436
        k(   47) = (  -0.3333333   0.6666667  -0.3333333), wk =   0.0109739
        k(   48) = (   0.0000000   0.0000000   0.2222222), wk =   0.0082305
        k(   49) = (   0.0000000  -0.1111111   0.3333333), wk =   0.0329218
        k(   50) = (   0.0000000  -0.2222222   0.4444444), wk =   0.0329218
        k(   51) = (   0.0000000  -0.3333333   0.5555556), wk =   0.0329218
        k(   52) = (  -0.1111111  -0.1111111   0.4444444), wk =   0.0329218
        k(   53) = (  -0.1111111  -0.2222222   0.5555556), wk =   0.0658436
        k(   54) = (  -0.1111111   0.6666667  -0.3333333), wk =   0.0329218
        k(   55) = (  -0.2222222   0.2222222   0.2222222), wk =   0.0109739
        k(   56) = (  -0.2222222   0.7777778  -0.3333333), wk =   0.0329218
        k(   57) = (  -0.3333333   0.3333333   0.2222222), wk =   0.0329218
        k(   58) = (   0.5555556  -0.5555556   0.2222222), wk =   0.0329218
        k(   59) = (   0.5555556  -0.6666667   0.3333333), wk =   0.0329218
        k(   60) = (   0.4444444  -0.5555556   0.3333333), wk =   0.0329218
        k(   61) = (   0.0000000   0.0000000   0.4444444), wk =   0.0082305
        k(   62) = (   0.0000000  -0.1111111   0.5555556), wk =   0.0329218
        k(   63) = (   0.0000000  -0.2222222   0.6666667), wk =   0.0329218
        k(   64) = (  -0.1111111  -0.1111111   0.6666667), wk =   0.0329218
        k(   65) = (  -0.1111111   0.7777778  -0.2222222), wk =   0.0329218
        k(   66) = (   0.5555556  -0.5555556   0.4444444), wk =   0.0109739
        k(   67) = (   0.0000000   0.0000000   0.6666667), wk =   0.0082305
        k(   68) = (   0.0000000  -0.1111111   0.7777778), wk =   0.0329218
        k(   69) = (  -0.1111111   0.8888889  -0.1111111), wk =   0.0109739
        k(   70) = (   0.0000000   0.0000000   0.8888889), wk =   0.0082305

     Dense  grid:     5233 G-vectors     FFT dimensions: (  24,  24,  24)

     Smooth grid:     3781 G-vectors     FFT dimensions: (  24,  24,  24)

     Largest allocated arrays     est. size (Mb)     dimensions
        Kohn-Sham Wavefunctions         0.09 Mb     (     473,   12)
        NL pseudopotentials             0.13 Mb     (     473,   18)
        Each V/rho on FFT grid          0.42 Mb     (   13824,   2)
        Each G-vector array             0.04 Mb     (    5233)
        G-vector shells                 0.00 Mb     (      86)
     Largest temporary arrays     est. size (Mb)     dimensions
        Auxiliary wavefunctions         0.35 Mb     (     473,   48)
        Each subspace H/S matrix        0.04 Mb     (      48,   48)
        Each <psi_i|beta_j> matrix      0.00 Mb     (      18,   12)
        Arrays for rho mixing           1.69 Mb     (   13824,    8)

     Check: negative/imaginary core charge=   -0.000425    0.000000

     Initial potential from superposition of free atoms

     starting charge   15.99956, renormalised to   16.00000
     Starting wfc are   13 randomized atomic wfcs

     total cpu time spent up to now is        2.8 secs

     Self-consistent Calculation

     iteration #  1     ecut=    50.00 Ry     beta=0.70
     Davidson diagonalization with overlap
     ethr =  1.00E-02,  avg # of iterations =  3.3

     negative rho (up, down):  0.000E+00 3.272E-04

     Magnetic moment per site:
     atom:    1    charge:   14.2809    magn:    5.6695    constr:    0.0000

     total cpu time spent up to now is        5.4 secs

     total energy              =    -328.99096117 Ry
     Harris-Foulkes estimate   =    -328.05431701 Ry
     estimated scf accuracy    <       1.52115591 Ry

     total magnetization       =     3.81 Bohr mag/cell
     absolute magnetization    =     3.84 Bohr mag/cell

     iteration #  2     ecut=    50.00 Ry     beta=0.70
     Davidson diagonalization with overlap
     ethr =  9.51E-03,  avg # of iterations =  1.2

     negative rho (up, down):  0.000E+00 3.519E-04

     Magnetic moment per site:
     atom:    1    charge:   14.5050    magn:    3.4431    constr:    0.0000

     total cpu time spent up to now is        7.5 secs

     total energy              =    -329.16631003 Ry
     Harris-Foulkes estimate   =    -329.10040851 Ry
     estimated scf accuracy    <       0.33768666 Ry

     total magnetization       =     3.04 Bohr mag/cell
     absolute magnetization    =     3.18 Bohr mag/cell

     iteration #  3     ecut=    50.00 Ry     beta=0.70
     Davidson diagonalization with overlap
     ethr =  2.11E-03,  avg # of iterations =  2.1

     negative rho (up, down):  0.000E+00 3.545E-04

     Magnetic moment per site:
     atom:    1    charge:   14.3894    magn:    2.4747    constr:    0.0000

     total cpu time spent up to now is        9.8 secs

     total energy              =    -329.18522182 Ry
     Harris-Foulkes estimate   =    -329.34231959 Ry
     estimated scf accuracy    <       0.45505669 Ry

     total magnetization       =     2.47 Bohr mag/cell
     absolute magnetization    =     2.61 Bohr mag/cell

     iteration #  4     ecut=    50.00 Ry     beta=0.70
     Davidson diagonalization with overlap
     ethr =  2.11E-03,  avg # of iterations =  2.1

     negative rho (up, down):  0.000E+00 2.041E-04

     Magnetic moment per site:
     atom:    1    charge:   14.4202    magn:    2.2725    constr:    0.0000

     total cpu time spent up to now is       11.8 secs

     total energy              =    -329.25866060 Ry
     Harris-Foulkes estimate   =    -329.25776633 Ry
     estimated scf accuracy    <       0.00195846 Ry

     total magnetization       =     2.31 Bohr mag/cell
     absolute magnetization    =     2.47 Bohr mag/cell

     iteration #  5     ecut=    50.00 Ry     beta=0.70
     Davidson diagonalization with overlap
     ethr =  1.22E-05,  avg # of iterations =  3.4

     negative rho (up, down):  0.000E+00 1.898E-04

     Magnetic moment per site:
     atom:    1    charge:   14.4121    magn:    2.2244    constr:    0.0000

     total cpu time spent up to now is       14.7 secs

     total energy              =    -329.26219145 Ry
     Harris-Foulkes estimate   =    -329.26185703 Ry
     estimated scf accuracy    <       0.00052457 Ry

     total magnetization       =     2.17 Bohr mag/cell
     absolute magnetization    =     2.30 Bohr mag/cell

     iteration #  6     ecut=    50.00 Ry     beta=0.70
     Davidson diagonalization with overlap
     ethr =  3.28E-06,  avg # of iterations =  1.6

     negative rho (up, down):  0.000E+00 1.005E-04

     Magnetic moment per site:
     atom:    1    charge:   14.4036    magn:    2.0450    constr:    0.0000

     total cpu time spent up to now is       16.9 secs

     total energy              =    -329.26158777 Ry
     Harris-Foulkes estimate   =    -329.26234805 Ry
     estimated scf accuracy    <       0.00028668 Ry

     total magnetization       =     2.13 Bohr mag/cell
     absolute magnetization    =     2.26 Bohr mag/cell

     iteration #  7     ecut=    50.00 Ry     beta=0.70
     Davidson diagonalization with overlap
     ethr =  1.79E-06,  avg # of iterations =  2.4

     negative rho (up, down):  0.000E+00 1.505E-04

     Magnetic moment per site:
     atom:    1    charge:   14.4085    magn:    2.1542    constr:    0.0000

     total cpu time spent up to now is       20.0 secs

     total energy              =    -329.26264970 Ry
     Harris-Foulkes estimate   =    -329.26235718 Ry
     estimated scf accuracy    <       0.00021337 Ry

     total magnetization       =     2.06 Bohr mag/cell
     absolute magnetization    =     2.16 Bohr mag/cell

     iteration #  8     ecut=    50.00 Ry     beta=0.70
     Davidson diagonalization with overlap
     ethr =  1.33E-06,  avg # of iterations =  2.0

     negative rho (up, down):  0.000E+00 1.473E-04

     Magnetic moment per site:
     atom:    1    charge:   14.4094    magn:    2.1431    constr:    0.0000

     total cpu time spent up to now is       22.5 secs

     total energy              =    -329.26279403 Ry
     Harris-Foulkes estimate   =    -329.26277286 Ry
     estimated scf accuracy    <       0.00003149 Ry

     total magnetization       =     2.09 Bohr mag/cell
     absolute magnetization    =     2.20 Bohr mag/cell

     iteration #  9     ecut=    50.00 Ry     beta=0.70
     Davidson diagonalization with overlap
     ethr =  1.97E-07,  avg # of iterations =  1.9

     negative rho (up, down):  0.000E+00 1.445E-04

     Magnetic moment per site:
     atom:    1    charge:   14.4092    magn:    2.1299    constr:    0.0000

     total cpu time spent up to now is       24.6 secs

     total energy              =    -329.26280882 Ry
     Harris-Foulkes estimate   =    -329.26279951 Ry
     estimated scf accuracy    <       0.00001406 Ry

     total magnetization       =     2.08 Bohr mag/cell
     absolute magnetization    =     2.20 Bohr mag/cell

     iteration # 10     ecut=    50.00 Ry     beta=0.70
     Davidson diagonalization with overlap
     ethr =  8.79E-08,  avg # of iterations =  1.5

     negative rho (up, down):  0.000E+00 1.406E-04

     Magnetic moment per site:
     atom:    1    charge:   14.4086    magn:    2.1198    constr:    0.0000

     total cpu time spent up to now is       26.5 secs

     total energy              =    -329.26281451 Ry
     Harris-Foulkes estimate   =    -329.26281301 Ry
     estimated scf accuracy    <       0.00000337 Ry

     total magnetization       =     2.08 Bohr mag/cell
     absolute magnetization    =     2.19 Bohr mag/cell

     iteration # 11     ecut=    50.00 Ry     beta=0.70
     Davidson diagonalization with overlap
     ethr =  2.11E-08,  avg # of iterations =  1.7

     negative rho (up, down):  0.000E+00 1.408E-04

     Magnetic moment per site:
     atom:    1    charge:   14.4087    magn:    2.1199    constr:    0.0000

     total cpu time spent up to now is       28.5 secs

     total energy              =    -329.26281655 Ry
     Harris-Foulkes estimate   =    -329.26281607 Ry
     estimated scf accuracy    <       0.00000014 Ry

     total magnetization       =     2.08 Bohr mag/cell
     absolute magnetization    =     2.19 Bohr mag/cell

     iteration # 12     ecut=    50.00 Ry     beta=0.70
     Davidson diagonalization with overlap
     ethr =  8.70E-10,  avg # of iterations =  2.6

     negative rho (up, down):  0.000E+00 1.404E-04

     Magnetic moment per site:
     atom:    1    charge:   14.4086    magn:    2.1192    constr:    0.0000

     total cpu time spent up to now is       30.7 secs

     total energy              =    -329.26281673 Ry
     Harris-Foulkes estimate   =    -329.26281660 Ry
     estimated scf accuracy    <       0.00000018 Ry

     total magnetization       =     2.08 Bohr mag/cell
     absolute magnetization    =     2.18 Bohr mag/cell

     iteration # 13     ecut=    50.00 Ry     beta=0.70
     Davidson diagonalization with overlap
     ethr =  8.70E-10,  avg # of iterations =  1.1

     negative rho (up, down):  0.000E+00 1.395E-04

     Magnetic moment per site:
     atom:    1    charge:   14.4086    magn:    2.1168    constr:    0.0000

     total cpu time spent up to now is       32.6 secs

     total energy              =    -329.26281668 Ry
     Harris-Foulkes estimate   =    -329.26281676 Ry
     estimated scf accuracy    <       0.00000008 Ry

     total magnetization       =     2.07 Bohr mag/cell
     absolute magnetization    =     2.18 Bohr mag/cell

     iteration # 14     ecut=    50.00 Ry     beta=0.70
     Davidson diagonalization with overlap
     ethr =  5.18E-10,  avg # of iterations =  2.0

     negative rho (up, down):  0.000E+00 1.397E-04

     Magnetic moment per site:
     atom:    1    charge:   14.4086    magn:    2.1170    constr:    0.0000

     total cpu time spent up to now is       34.9 secs

     total energy              =    -329.26281687 Ry
     Harris-Foulkes estimate   =    -329.26281680 Ry
     estimated scf accuracy    <       0.00000001 Ry

     total magnetization       =     2.07 Bohr mag/cell
     absolute magnetization    =     2.18 Bohr mag/cell

     iteration # 15     ecut=    50.00 Ry     beta=0.70
     Davidson diagonalization with overlap
     ethr =  7.42E-11,  avg # of iterations =  1.5

     negative rho (up, down):  0.000E+00 1.398E-04

     Magnetic moment per site:
     atom:    1    charge:   14.4086    magn:    2.1171    constr:    0.0000

     total cpu time spent up to now is       36.9 secs

     End of self-consistent calculation

 ------ SPIN UP ------------


          k = 0.0000 0.0000 0.0000 (   459 PWs)   bands (ev):

   -70.0953 -35.9044 -35.9044 -35.9044   9.5060  15.7889  15.7889  15.7889
    16.7487  16.7487  42.6857  42.6857

          k = 0.0000-0.1111 0.1111 (   463 PWs)   bands (ev):

   -70.0868 -35.9515 -35.9198 -35.9041  10.0082  15.6539  15.7619  16.0577
    16.6410  16.7604  39.8499  41.8322

          k = 0.0000-0.2222 0.2222 (   461 PWs)   bands (ev):

   -70.0648 -36.0689 -35.9591 -35.9039  11.3637  15.3229  15.5874  16.6276
    16.7814  16.8013  34.8644  39.5499

          k = 0.0000-0.3333 0.3333 (   468 PWs)   bands (ev):

   -70.0402 -36.2015 -36.0040 -35.9043  12.7494  14.9636  15.9655  16.8587
    16.8685  17.6977  29.8236  37.4476

          k = 0.0000-0.4444 0.4444 (   470 PWs)   bands (ev):

   -70.0239 -36.2863 -36.0328 -35.9045  13.0747  14.7379  16.8511  16.9249
    17.9764  18.3672  25.8906  36.2724

          k =-0.1111-0.1111 0.2222 (   461 PWs)   bands (ev):

   -70.0714 -36.0321 -35.9370 -35.9153  10.9511  15.4905  15.5252  16.5261
    16.6175  16.8365  37.1607  38.3771

          k =-0.1111-0.2222 0.3333 (   467 PWs)   bands (ev):

   -70.0483 -36.1471 -35.9847 -35.9204  12.4602  15.1197  15.3578  16.6150
    16.9462  17.6056  32.5029  35.8752

          k =-0.1111-0.3333 0.4444 (   466 PWs)   bands (ev):

   -70.0276 -36.2447 -36.0312 -35.9212  13.2870  14.8480  15.9537  16.8491
    17.2058  18.9170  27.8034  34.4193

          k =-0.1111 0.5556-0.4444 (   463 PWs)   bands (ev):

   -70.0193 -36.2821 -36.0499 -35.9213  13.3245  14.7496  16.3879  16.8708
    17.6413  20.1335  25.2286  33.8895

          k =-0.2222-0.2222 0.4444 (   467 PWs)   bands (ev):

   -70.0291 -36.2114 -36.0363 -35.9396  13.6496  14.7612  15.3114  16.7136
    17.1244  19.1730  30.4060  31.2000

          k =-0.2222 0.6667-0.4444 (   472 PWs)   bands (ev):

   -70.0169 -36.2370 -36.0927 -35.9465  13.9490  14.7442  15.4534  16.9042
    17.3321  21.4873  26.4240  29.8537

          k =-0.3333 0.6667-0.3333 (   463 PWs)   bands (ev):

   -70.0122 -36.1756 -36.1756 -35.9540  14.3982  14.8688  14.8688  17.1629
    17.1629  24.6910  24.6910  27.2171

          k = 0.0000 0.0000 0.2222 (   458 PWs)   bands (ev):

   -70.0782 -35.9635 -35.9352 -35.9352  10.4915  15.8019  15.8019  16.0595
    16.3171  16.9177  39.0218  41.0442

          k = 0.0000-0.1111 0.3333 (   464 PWs)   bands (ev):

   -70.0572 -36.0670 -35.9761 -35.9422  11.7826  15.5483  15.5770  16.2557
    16.7170  17.0937  35.1800  38.5161

          k = 0.0000-0.2222 0.4444 (   468 PWs)   bands (ev):

   -70.0332 -36.1931 -36.0213 -35.9403  13.0749  15.2540  15.3286  16.6501
    17.6403  17.6457  30.1544  36.9739

          k = 0.0000-0.3333 0.5556 (   466 PWs)   bands (ev):

   -70.0173 -36.2741 -36.0507 -35.9381  13.3466  15.0475  15.6912  16.7154
    18.3324  19.4313  26.0514  35.7205

          k =-0.1111-0.1111 0.4444 (   458 PWs)   bands (ev):

   -70.0350 -36.1486 -36.0225 -35.9648  13.0419  15.0045  15.6619  16.3388
    17.2269  17.8159  32.8793  33.7243

          k =-0.1111-0.2222 0.5556 (   463 PWs)   bands (ev):

   -70.0158 -36.2279 -36.0740 -35.9670  13.7505  14.7639  15.4685  16.6728
    17.7221  19.7290  28.3723  31.8738

          k =-0.1111 0.6667-0.3333 (   461 PWs)   bands (ev):

   -70.0081 -36.2589 -36.0948 -35.9667  13.7386  15.0591  15.1916  16.7521
    18.0658  21.7166  25.4048  31.3116

          k =-0.2222 0.2222 0.2222 (   471 PWs)   bands (ev):

   -70.0543 -36.1298 -35.9415 -35.9415  12.2047  15.1246  15.1246  16.7606
    16.7606  17.6397  34.9821  34.9821

          k =-0.2222 0.7778-0.3333 (   461 PWs)   bands (ev):

   -70.0045 -36.2205 -36.1484 -35.9747  14.3616  14.3679  15.1364  17.1276
    17.6490  22.7757  26.6892  27.9967

          k =-0.3333 0.3333 0.2222 (   467 PWs)   bands (ev):

   -70.0343 -36.2076 -36.0014 -35.9452  13.5669  14.8174  15.1009  16.8376
    16.8901  19.0737  30.4058  33.3706

          k = 0.5556-0.5556 0.2222 (   470 PWs)   bands (ev):

   -70.0215 -36.2457 -36.0541 -35.9477  13.7479  14.6570  16.0484  16.9369
    16.9420  20.9915  26.2524  32.5072

          k = 0.5556-0.6667 0.3333 (   473 PWs)   bands (ev):

   -70.0223 -36.2161 -36.0520 -35.9779  14.3131  14.6866  15.1335  16.9212
    16.9791  21.2496  28.6540  29.4736

          k = 0.4444-0.5556 0.3333 (   470 PWs)   bands (ev):

   -70.0174 -36.1939 -36.1018 -35.9855  14.3040  14.7060  15.3985  16.9817
    17.0079  23.5729  25.6891  28.6935

          k = 0.0000 0.0000 0.4444 (   458 PWs)   bands (ev):

   -70.0374 -36.0815 -36.0174 -36.0174  12.8004  15.2145  16.0733  16.0733
    16.7580  17.5964  35.7420  36.1628

          k = 0.0000-0.1111 0.5556 (   457 PWs)   bands (ev):

   -70.0151 -36.1722 -36.0642 -36.0280  13.6482  14.5872  16.0380  16.4647
    17.5307  18.8747  31.1198  33.9359

          k = 0.0000-0.2222 0.6667 (   454 PWs)   bands (ev):

   -70.0005 -36.2428 -36.0948 -36.0224  13.7411  14.4581  15.9069  16.6121
    18.2449  21.4766  26.6639  32.5959

          k =-0.1111-0.1111 0.6667 (   463 PWs)   bands (ev):

   -69.9980 -36.2090 -36.1244 -36.0449  13.9098  14.0644  16.0883  16.9832
    17.8830  21.3023  29.2694  29.8407

          k =-0.1111 0.7778-0.2222 (   461 PWs)   bands (ev):

   -69.9910 -36.2238 -36.1547 -36.0438  13.8074  14.0256  15.9898  17.2706
    18.0777  24.0678  25.9567  28.9985

          k = 0.5556-0.5556 0.4444 (   471 PWs)   bands (ev):

   -70.0177 -36.1611 -36.0617 -36.0617  14.7179  14.7179  15.0234  16.9664
    16.9664  24.1034  27.7546  27.7546

          k = 0.0000 0.0000 0.6667 (   458 PWs)   bands (ev):

   -69.9952 -36.1627 -36.1141 -36.1141  13.7066  13.9733  16.9089  16.9089
    17.5748  20.7439  31.4426  31.4426

          k = 0.0000-0.1111 0.7778 (   468 PWs)   bands (ev):

   -69.9826 -36.2082 -36.1465 -36.1197  13.5325  13.6094  17.0720  17.2920
    18.1476  23.6561  27.7820  29.9200

          k =-0.1111 0.8889-0.1111 (   472 PWs)   bands (ev):

   -69.9765 -36.1926 -36.1926 -36.1273  13.3941  13.3941  17.1775  18.0157
    18.0157  26.6295  26.6295  27.6159

          k = 0.0000 0.0000 0.8889 (   470 PWs)   bands (ev):

   -69.9706 -36.1877 -36.1792 -36.1792  13.1831  13.1857  17.9858  17.9858
    18.1201  26.1383  28.2647  28.2647

 ------ SPIN DOWN ----------


          k = 0.0000 0.0000 0.0000 (   459 PWs)   bands (ev):

   -67.5901 -33.4429 -33.4429 -33.4429   9.6763  17.3846  17.3846  17.3846
    19.7310  19.7310  42.4519  42.4519

          k = 0.0000-0.1111 0.1111 (   463 PWs)   bands (ev):

   -67.5809 -33.4950 -33.4597 -33.4427  10.1822  17.2268  17.3511  17.6739
    19.5652  19.7439  40.0127  41.7834

          k = 0.0000-0.2222 0.2222 (   461 PWs)   bands (ev):

   -67.5572 -33.6248 -33.5028 -33.4425  11.5809  16.8424  17.1870  18.4571
    19.3480  19.7952  35.4003  39.6751

          k = 0.0000-0.3333 0.3333 (   468 PWs)   bands (ev):

   -67.5303 -33.7712 -33.5518 -33.4429  13.3173  16.4291  17.2083  19.3736
    19.4611  19.8881  30.6290  37.5610

          k = 0.0000-0.4444 0.4444 (   470 PWs)   bands (ev):

   -67.5127 -33.8649 -33.5832 -33.4432  14.2012  16.1714  18.2275  19.4739
    19.9707  20.2064  27.0322  36.3442

          k =-0.1111-0.1111 0.2222 (   461 PWs)   bands (ev):

   -67.5643 -33.5842 -33.4787 -33.4551  11.1425  17.0328  17.1236  18.2642
    19.3312  19.8167  37.5367  38.6996

          k =-0.1111-0.2222 0.3333 (   467 PWs)   bands (ev):

   -67.5391 -33.7112 -33.5309 -33.4606  12.7888  16.6353  16.8831  19.2160
    19.2700  19.9468  33.1528  36.2832

          k =-0.1111-0.3333 0.4444 (   466 PWs)   bands (ev):

   -67.5167 -33.8188 -33.5819 -33.4615  14.2118  16.2920  17.1702  19.3605
    19.9300  20.5582  28.7218  34.8223

          k =-0.1111 0.5556-0.4444 (   463 PWs)   bands (ev):

   -67.5077 -33.8602 -33.6024 -33.4616  14.5462  16.1677  17.7711  19.4482
    20.0290  21.3605  26.4371  34.2804

          k =-0.2222-0.2222 0.4444 (   467 PWs)   bands (ev):

   -67.5184 -33.7819 -33.5880 -33.4816  14.3307  16.3591  16.6024  19.2379
    19.8813  20.8415  31.1601  31.7962

          k =-0.2222 0.6667-0.4444 (   472 PWs)   bands (ev):

   -67.5050 -33.8101 -33.6501 -33.4890  15.1589  16.1949  16.7804  19.4220
    19.8890  22.7401  27.3942  30.4962

          k =-0.3333 0.6667-0.3333 (   463 PWs)   bands (ev):

   -67.5000 -33.7422 -33.7422 -33.4972  15.6713  16.3163  16.3163  19.6599
    19.6599  25.6832  25.6832  28.0188

          k = 0.0000 0.0000 0.2222 (   458 PWs)   bands (ev):

   -67.5717 -33.5089 -33.4766 -33.4766  10.6738  17.3714  17.3714  17.6788
    19.1537  19.9348  39.2383  41.2351

          k = 0.0000-0.1111 0.3333 (   464 PWs)   bands (ev):

   -67.5489 -33.6230 -33.5214 -33.4845  12.0286  17.1082  17.2794  18.3860
    18.7355  20.0853  35.7335  38.8364

          k = 0.0000-0.2222 0.4444 (   468 PWs)   bands (ev):

   -67.5228 -33.7618 -33.5708 -33.4824  13.7040  16.7372  17.0517  18.8814
    19.4026  20.2997  30.9494  37.1095

          k = 0.0000-0.3333 0.5556 (   466 PWs)   bands (ev):

   -67.5056 -33.8512 -33.6030 -33.4801  14.5709  16.5014  17.3755  19.1040
    20.1679  21.0759  27.1535  36.1526

          k =-0.1111-0.1111 0.4444 (   458 PWs)   bands (ev):

   -67.5249 -33.7130 -33.5725 -33.5093  13.5200  16.9052  17.1363  18.4976
    19.1410  20.3769  33.5968  34.2574

          k =-0.1111-0.2222 0.5556 (   463 PWs)   bands (ev):

   -67.5040 -33.8000 -33.6291 -33.5118  14.8397  16.5228  16.9810  18.8117
    19.7896  21.4614  29.2481  32.4905

          k =-0.1111 0.6667-0.3333 (   461 PWs)   bands (ev):

   -67.4956 -33.8342 -33.6521 -33.5114  15.1796  16.6781  16.7806  18.9655
    20.0322  22.9508  26.5362  31.9205

          k =-0.2222 0.2222 0.2222 (   471 PWs)   bands (ev):

   -67.5458 -33.6919 -33.4836 -33.4836  12.4422  16.6513  16.6513  19.2990
    19.6340  19.6340  35.4318  35.4318

          k =-0.2222 0.7778-0.3333 (   461 PWs)   bands (ev):

   -67.4917 -33.7915 -33.7114 -33.5201  15.8057  16.1444  16.6748  19.1812
    19.7097  24.0045  27.6709  28.7208

          k =-0.3333 0.3333 0.2222 (   467 PWs)   bands (ev):

   -67.5240 -33.7778 -33.5495 -33.4880  14.1116  16.2461  16.4387  19.6049
    19.8657  20.6315  31.1014  33.8154

          k = 0.5556-0.5556 0.2222 (   470 PWs)   bands (ev):

   -67.5100 -33.8200 -33.6074 -33.4908  14.8934  16.0245  16.9953  19.6649
    19.9874  22.1662  27.2421  32.9271

          k = 0.5556-0.6667 0.3333 (   473 PWs)   bands (ev):

   -67.5109 -33.7870 -33.6055 -33.5239  15.3269  16.0575  16.2209  19.7527
    19.9556  22.5135  29.3848  30.1190

          k = 0.4444-0.5556 0.3333 (   470 PWs)   bands (ev):

   -67.5056 -33.7627 -33.6606 -33.5323  15.5221  15.9968  16.5075  19.8268
    19.9738  24.4888  26.6384  29.3554

          k = 0.0000 0.0000 0.4444 (   458 PWs)   bands (ev):

   -67.5276 -33.6395 -33.5668 -33.5668  13.2164  17.6146  17.6146  17.7093
    18.4409  20.3940  36.4163  36.6724

          k = 0.0000-0.1111 0.5556 (   457 PWs)   bands (ev):

   -67.5034 -33.7387 -33.6183 -33.5789  14.5868  16.7441  17.5722  18.2356
    19.2763  21.0117  31.8550  34.4503

          k = 0.0000-0.2222 0.6667 (   454 PWs)   bands (ev):

   -67.4875 -33.8161 -33.6519 -33.5730  15.3229  16.3260  17.4254  18.5407
    20.0712  22.8206  27.6243  33.0732

          k =-0.1111-0.1111 0.6667 (   463 PWs)   bands (ev):

   -67.4847 -33.7786 -33.6844 -33.5974  15.4153  16.1157  17.6537  18.7131
    19.7200  22.7091  30.0914  30.4407

          k =-0.1111 0.7778-0.2222 (   461 PWs)   bands (ev):

   -67.4772 -33.7944 -33.7180 -33.5962  15.6866  15.8980  17.4881  19.0630
    19.9189  25.1039  26.8948  29.6463

          k = 0.5556-0.5556 0.4444 (   471 PWs)   bands (ev):

   -67.5058 -33.7263 -33.6165 -33.6165  15.9465  15.9465  16.0650  19.9999
    19.9999  25.0242  28.4487  28.4487

          k = 0.0000 0.0000 0.6667 (   458 PWs)   bands (ev):

   -67.4817 -33.7282 -33.6730 -33.6730  15.2044  16.1418  18.5052  18.5052
    19.3369  22.2161  31.9240  31.9240

          k = 0.0000-0.1111 0.7778 (   468 PWs)   bands (ev):

   -67.4678 -33.7770 -33.7086 -33.6795  15.4006  15.6054  18.7078  18.9606
    19.9641  24.6167  28.4502  30.3345

          k =-0.1111 0.8889-0.1111 (   472 PWs)   bands (ev):

   -67.4613 -33.7594 -33.7594 -33.6878  15.3547  15.3547  18.8059  19.8050
    19.8050  27.3073  27.3073  28.1080

          k = 0.0000 0.0000 0.8889 (   470 PWs)   bands (ev):

   -67.4547 -33.7541 -33.7447 -33.7447  15.1281  15.1745  19.7590  19.7590
    19.9379  26.6754  28.5663  28.5663

     the Fermi energy is    17.9074 ev

!    total energy              =    -329.26281688 Ry
     Harris-Foulkes estimate   =    -329.26281687 Ry
     estimated scf accuracy    <          1.1E-09 Ry

     total all-electron energy =     -2545.559352 Ry

     The total energy is the sum of the following terms:

     one-electron contribution =    -111.00126463 Ry
     hartree contribution      =      65.86719335 Ry
     xc contribution           =     -34.81148440 Ry
     ewald contribution        =    -173.16798571 Ry
     one-center paw contrib.   =     -76.15075228 Ry
     smearing contrib. (-TS)   =       0.00147679 Ry

     total magnetization       =     2.07 Bohr mag/cell
     absolute magnetization    =     2.18 Bohr mag/cell

     convergence has been achieved in  15 iterations

     Forces acting on atoms (Ry/au):


     negative rho (up, down):  0.000E+00 1.398E-04
     atom    1 type  1   force =     0.00000000    0.00000000    0.00000000

     Total force =     0.000000     Total SCF correction =     0.000000


     entering subroutine stress ...


     negative rho (up, down):  0.000E+00 1.398E-04
          total   stress  (Ry/bohr**3)                   (kbar)     P= -124.77
  -0.00084818  -0.00000000   0.00000000       -124.77     -0.00      0.00
  -0.00000000  -0.00084818   0.00000000         -0.00   -124.77      0.00
   0.00000000   0.00000000  -0.00084818          0.00      0.00   -124.77


     Writing output data file Fe_bcc.save

     init_run     :      1.95s CPU      2.21s WALL (       1 calls)
     electrons    :     32.91s CPU     34.18s WALL (       1 calls)
     forces       :      0.14s CPU      0.16s WALL (       1 calls)
     stress       :      0.48s CPU      0.49s WALL (       1 calls)

     Called by init_run:
     wfcinit      :      0.63s CPU      0.66s WALL (       1 calls)
     potinit      :      0.69s CPU      0.82s WALL (       1 calls)

     Called by electrons:
     c_bands      :     20.33s CPU     20.89s WALL (      15 calls)
     sum_band     :      3.85s CPU      4.01s WALL (      15 calls)
     v_of_rho     :      0.39s CPU      0.42s WALL (      16 calls)
     newd         :      0.26s CPU      0.28s WALL (      16 calls)
     mix_rho      :      0.05s CPU      0.06s WALL (      15 calls)

     Called by c_bands:
     init_us_2    :      0.44s CPU      0.46s WALL (    2310 calls)
     cegterg      :     19.49s CPU     20.01s WALL (    1050 calls)

     Called by *egterg:
     h_psi        :     16.70s CPU     17.33s WALL (    3231 calls)
     s_psi        :      0.45s CPU      0.35s WALL (    3231 calls)
     g_psi        :      0.09s CPU      0.09s WALL (    2111 calls)
     cdiaghg      :      1.02s CPU      1.07s WALL (    3161 calls)

     Called by h_psi:
     add_vuspsi   :      0.47s CPU      0.38s WALL (    3231 calls)

     General routines
     calbec       :      0.50s CPU      0.52s WALL (    4421 calls)
     fft          :      0.21s CPU      0.22s WALL (     530 calls)
     ffts         :      0.02s CPU      0.02s WALL (      62 calls)
     fftw         :     17.10s CPU     17.81s WALL (   72814 calls)
     interpolate  :      0.05s CPU      0.05s WALL (      62 calls)
     davcio       :      0.00s CPU      0.00s WALL (      70 calls)


     PAW routines
     PAW_pot      :      8.69s CPU      9.31s WALL (      16 calls)
     PAW_symme    :      0.02s CPU      0.02s WALL (      31 calls)

     PWSCF        :    36.03s CPU        37.81s WALL


   This run was terminated on:  10:21:57  11May2015            

=------------------------------------------------------------------------------=
   JOB DONE.
=------------------------------------------------------------------------------=
