
     Program PWSCF v.5.1.2 starts on 11May2015 at 10:45:47 

     This program is part of the open-source Quantum ESPRESSO suite
     for quantum simulation of materials; please cite
         "P. Giannozzi et al., J. Phys.:Condens. Matter 21 395502 (2009);
          URL http://www.quantum-espresso.org", 
     in publications or presentations arising from this work. More details at
     http://www.quantum-espresso.org/quote

     Serial version
     Reading input from Fe_bcc_5.46_12.pw.in

     Current dimensions of program PWSCF are:
     Max number of different atomic species (ntypx) = 10
     Max number of k-points (npk) =  40000
     Max angular momentum in pseudopotentials (lmaxx) =  3
               file Fe.pbe-spn-kjpaw_psl.0.2.1.UPF: wavefunction(s)  3D renormalized

     G-vector sticks info
     --------------------
     sticks:   dense  smooth     PW     G-vecs:    dense   smooth      PW
     Sum         411     337    117                 5425     3925     767

     Generating pointlists ...
     new r_m :   0.3572 (alat units)  1.9505 (a.u.) for type    1


     bravais-lattice index     =            3
     lattice parameter (alat)  =       5.4600  a.u.
     unit-cell volume          =      81.3857 (a.u.)^3
     number of atoms/cell      =            1
     number of atomic types    =            1
     number of electrons       =        16.00
     number of Kohn-Sham states=           12
     kinetic-energy cutoff     =      50.0000  Ry
     charge density cutoff     =     250.0000  Ry
     convergence threshold     =      1.0E-08
     mixing beta               =       0.7000
     number of iterations used =            8  plain     mixing
     Exchange-correlation      =  SLA  PW   PBX  PBC ( 1  4  3  4 0 0)

     celldm(1)=   5.460000  celldm(2)=   0.000000  celldm(3)=   0.000000
     celldm(4)=   0.000000  celldm(5)=   0.000000  celldm(6)=   0.000000

     crystal axes: (cart. coord. in units of alat)
               a(1) = (   0.500000   0.500000   0.500000 )  
               a(2) = (  -0.500000   0.500000   0.500000 )  
               a(3) = (  -0.500000  -0.500000   0.500000 )  

     reciprocal axes: (cart. coord. in units 2 pi/alat)
               b(1) = (  1.000000  0.000000  1.000000 )  
               b(2) = ( -1.000000  1.000000  0.000000 )  
               b(3) = (  0.000000 -1.000000  1.000000 )  


     PseudoPot. # 1 for Fe read from file:
     ./Fe.pbe-spn-kjpaw_psl.0.2.1.UPF
     MD5 check sum: a0a08122d52b112de96d1da1d7dd020f
     Pseudo is Projector augmented-wave + core cor, Zval = 16.0
     Generated using "atomic" code by A. Dal Corso  v.5.0.2 svn rev. 9415
     Shape of augmentation charge: PSQ
     Using radial grid of 1191 points,  6 beta functions with: 
                l(1) =   0
                l(2) =   0
                l(3) =   1
                l(4) =   1
                l(5) =   2
                l(6) =   2
     Q(r) pseudized with 0 coefficients 


     atomic species   valence    mass     pseudopotential
        Fe            16.00    55.85000     Fe( 1.00)

     Starting magnetic structure 
     atomic species   magnetization
        Fe           0.700

     48 Sym. Ops., with inversion, found



   Cartesian axes

     site n.     atom                  positions (alat units)
         1           Fe  tau(   1) = (   0.0000000   0.0000000   0.0000000  )

     number of k points=   144  Marzari-Vanderbilt smearing, width (Ry)=  0.0250

     Number of k-points >= 100: set verbosity='high' to print them.

     Dense  grid:     5425 G-vectors     FFT dimensions: (  24,  24,  24)

     Smooth grid:     3925 G-vectors     FFT dimensions: (  24,  24,  24)

     Largest allocated arrays     est. size (Mb)     dimensions
        Kohn-Sham Wavefunctions         0.09 Mb     (     498,   12)
        NL pseudopotentials             0.14 Mb     (     498,   18)
        Each V/rho on FFT grid          0.42 Mb     (   13824,   2)
        Each G-vector array             0.04 Mb     (    5425)
        G-vector shells                 0.00 Mb     (      88)
     Largest temporary arrays     est. size (Mb)     dimensions
        Auxiliary wavefunctions         0.36 Mb     (     498,   48)
        Each subspace H/S matrix        0.04 Mb     (      48,   48)
        Each <psi_i|beta_j> matrix      0.00 Mb     (      18,   12)
        Arrays for rho mixing           1.69 Mb     (   13824,    8)

     Check: negative/imaginary core charge=   -0.000416    0.000000

     Initial potential from superposition of free atoms

     starting charge   15.99956, renormalised to   16.00000
     Starting wfc are   13 randomized atomic wfcs

     total cpu time spent up to now is        2.7 secs

     Self-consistent Calculation

     iteration #  1     ecut=    50.00 Ry     beta=0.70
     Davidson diagonalization with overlap
     ethr =  1.00E-02,  avg # of iterations =  3.1

     negative rho (up, down):  0.000E+00 3.654E-04

     Magnetic moment per site:
     atom:    1    charge:   14.3048    magn:    5.7294    constr:    0.0000

     total cpu time spent up to now is        6.5 secs

     total energy              =    -328.98454889 Ry
     Harris-Foulkes estimate   =    -328.07046631 Ry
     estimated scf accuracy    <       1.49697794 Ry

     total magnetization       =     3.89 Bohr mag/cell
     absolute magnetization    =     3.92 Bohr mag/cell

     iteration #  2     ecut=    50.00 Ry     beta=0.70
     Davidson diagonalization with overlap
     ethr =  9.36E-03,  avg # of iterations =  1.2

     negative rho (up, down):  0.000E+00 3.926E-04

     Magnetic moment per site:
     atom:    1    charge:   14.5345    magn:    3.5793    constr:    0.0000

     total cpu time spent up to now is        9.6 secs

     total energy              =    -329.15445248 Ry
     Harris-Foulkes estimate   =    -329.10403971 Ry
     estimated scf accuracy    <       0.35116849 Ry

     total magnetization       =     3.12 Bohr mag/cell
     absolute magnetization    =     3.23 Bohr mag/cell

     iteration #  3     ecut=    50.00 Ry     beta=0.70
     Davidson diagonalization with overlap
     ethr =  2.19E-03,  avg # of iterations =  2.1

     negative rho (up, down):  0.000E+00 4.059E-04

     Magnetic moment per site:
     atom:    1    charge:   14.4196    magn:    2.5640    constr:    0.0000

     total cpu time spent up to now is       13.1 secs

     total energy              =    -329.17833325 Ry
     Harris-Foulkes estimate   =    -329.34359580 Ry
     estimated scf accuracy    <       0.47779324 Ry

     total magnetization       =     2.61 Bohr mag/cell
     absolute magnetization    =     2.75 Bohr mag/cell

     iteration #  4     ecut=    50.00 Ry     beta=0.70
     Davidson diagonalization with overlap
     ethr =  2.19E-03,  avg # of iterations =  2.0

     negative rho (up, down):  0.000E+00 2.546E-04

     Magnetic moment per site:
     atom:    1    charge:   14.4570    magn:    2.3890    constr:    0.0000

     total cpu time spent up to now is       16.2 secs

     total energy              =    -329.25741170 Ry
     Harris-Foulkes estimate   =    -329.25676194 Ry
     estimated scf accuracy    <       0.00168618 Ry

     total magnetization       =     2.41 Bohr mag/cell
     absolute magnetization    =     2.58 Bohr mag/cell

     iteration #  5     ecut=    50.00 Ry     beta=0.70
     Davidson diagonalization with overlap
     ethr =  1.05E-05,  avg # of iterations =  3.4

     negative rho (up, down):  0.000E+00 2.539E-04

     Magnetic moment per site:
     atom:    1    charge:   14.4530    magn:    2.3718    constr:    0.0000

     total cpu time spent up to now is       20.5 secs

     total energy              =    -329.26043930 Ry
     Harris-Foulkes estimate   =    -329.26016421 Ry
     estimated scf accuracy    <       0.00044815 Ry

     total magnetization       =     2.28 Bohr mag/cell
     absolute magnetization    =     2.43 Bohr mag/cell

     iteration #  6     ecut=    50.00 Ry     beta=0.70
     Davidson diagonalization with overlap
     ethr =  2.80E-06,  avg # of iterations =  1.1

     negative rho (up, down):  0.000E+00 1.445E-04

     Magnetic moment per site:
     atom:    1    charge:   14.4396    magn:    2.1180    constr:    0.0000

     total cpu time spent up to now is       23.5 secs

     total energy              =    -329.25867233 Ry
     Harris-Foulkes estimate   =    -329.26047569 Ry
     estimated scf accuracy    <       0.00037272 Ry

     total magnetization       =     2.26 Bohr mag/cell
     absolute magnetization    =     2.41 Bohr mag/cell

     iteration #  7     ecut=    50.00 Ry     beta=0.70
     Davidson diagonalization with overlap
     ethr =  2.33E-06,  avg # of iterations =  2.5

     negative rho (up, down):  0.000E+00 1.994E-04

     Magnetic moment per site:
     atom:    1    charge:   14.4431    magn:    2.2495    constr:    0.0000

     total cpu time spent up to now is       27.5 secs

     total energy              =    -329.26076275 Ry
     Harris-Foulkes estimate   =    -329.26007414 Ry
     estimated scf accuracy    <       0.00034298 Ry

     total magnetization       =     2.14 Bohr mag/cell
     absolute magnetization    =     2.26 Bohr mag/cell

     iteration #  8     ecut=    50.00 Ry     beta=0.70
     Davidson diagonalization with overlap
     ethr =  2.14E-06,  avg # of iterations =  2.0

     negative rho (up, down):  0.000E+00 1.963E-04

     Magnetic moment per site:
     atom:    1    charge:   14.4441    magn:    2.2423    constr:    0.0000

     total cpu time spent up to now is       30.6 secs

     total energy              =    -329.26098444 Ry
     Harris-Foulkes estimate   =    -329.26097683 Ry
     estimated scf accuracy    <       0.00000849 Ry

     total magnetization       =     2.19 Bohr mag/cell
     absolute magnetization    =     2.32 Bohr mag/cell

     iteration #  9     ecut=    50.00 Ry     beta=0.70
     Davidson diagonalization with overlap
     ethr =  5.30E-08,  avg # of iterations =  2.3

     negative rho (up, down):  0.000E+00 1.980E-04

     Magnetic moment per site:
     atom:    1    charge:   14.4443    magn:    2.2430    constr:    0.0000

     total cpu time spent up to now is       34.1 secs

     total energy              =    -329.26098974 Ry
     Harris-Foulkes estimate   =    -329.26098932 Ry
     estimated scf accuracy    <       0.00000226 Ry

     total magnetization       =     2.18 Bohr mag/cell
     absolute magnetization    =     2.31 Bohr mag/cell

     iteration # 10     ecut=    50.00 Ry     beta=0.70
     Davidson diagonalization with overlap
     ethr =  1.41E-08,  avg # of iterations =  1.3

     negative rho (up, down):  0.000E+00 1.936E-04

     Magnetic moment per site:
     atom:    1    charge:   14.4439    magn:    2.2311    constr:    0.0000

     total cpu time spent up to now is       37.1 secs

     total energy              =    -329.26099039 Ry
     Harris-Foulkes estimate   =    -329.26098989 Ry
     estimated scf accuracy    <       0.00000290 Ry

     total magnetization       =     2.18 Bohr mag/cell
     absolute magnetization    =     2.31 Bohr mag/cell

     iteration # 11     ecut=    50.00 Ry     beta=0.70
     Davidson diagonalization with overlap
     ethr =  1.41E-08,  avg # of iterations =  2.0

     negative rho (up, down):  0.000E+00 1.937E-04

     Magnetic moment per site:
     atom:    1    charge:   14.4439    magn:    2.2308    constr:    0.0000

     total cpu time spent up to now is       40.2 secs

     total energy              =    -329.26099369 Ry
     Harris-Foulkes estimate   =    -329.26099310 Ry
     estimated scf accuracy    <       0.00000002 Ry

     total magnetization       =     2.18 Bohr mag/cell
     absolute magnetization    =     2.30 Bohr mag/cell

     iteration # 12     ecut=    50.00 Ry     beta=0.70
     Davidson diagonalization with overlap
     ethr =  9.47E-11,  avg # of iterations =  3.2

     negative rho (up, down):  0.000E+00 1.936E-04

     Magnetic moment per site:
     atom:    1    charge:   14.4439    magn:    2.2303    constr:    0.0000

     total cpu time spent up to now is       44.2 secs

     total energy              =    -329.26099382 Ry
     Harris-Foulkes estimate   =    -329.26099373 Ry
     estimated scf accuracy    <       0.00000003 Ry

     total magnetization       =     2.18 Bohr mag/cell
     absolute magnetization    =     2.30 Bohr mag/cell

     iteration # 13     ecut=    50.00 Ry     beta=0.70
     Davidson diagonalization with overlap
     ethr =  9.47E-11,  avg # of iterations =  1.9

     negative rho (up, down):  0.000E+00 1.937E-04

     Magnetic moment per site:
     atom:    1    charge:   14.4439    magn:    2.2306    constr:    0.0000

     total cpu time spent up to now is       47.2 secs

     total energy              =    -329.26099382 Ry
     Harris-Foulkes estimate   =    -329.26099383 Ry
     estimated scf accuracy    <       0.00000002 Ry

     total magnetization       =     2.18 Bohr mag/cell
     absolute magnetization    =     2.30 Bohr mag/cell

     iteration # 14     ecut=    50.00 Ry     beta=0.70
     Davidson diagonalization with overlap
     ethr =  9.47E-11,  avg # of iterations =  1.1

     negative rho (up, down):  0.000E+00 1.938E-04

     Magnetic moment per site:
     atom:    1    charge:   14.4439    magn:    2.2306    constr:    0.0000

     total cpu time spent up to now is       50.2 secs

     total energy              =    -329.26099381 Ry
     Harris-Foulkes estimate   =    -329.26099382 Ry
     estimated scf accuracy    <       0.00000003 Ry

     total magnetization       =     2.18 Bohr mag/cell
     absolute magnetization    =     2.30 Bohr mag/cell

     iteration # 15     ecut=    50.00 Ry     beta=0.70
     Davidson diagonalization with overlap
     ethr =  9.47E-11,  avg # of iterations =  1.0

     negative rho (up, down):  0.000E+00 1.937E-04

     Magnetic moment per site:
     atom:    1    charge:   14.4439    magn:    2.2304    constr:    0.0000

     total cpu time spent up to now is       53.2 secs

     total energy              =    -329.26099383 Ry
     Harris-Foulkes estimate   =    -329.26099381 Ry
     estimated scf accuracy    <       0.00000004 Ry

     total magnetization       =     2.18 Bohr mag/cell
     absolute magnetization    =     2.30 Bohr mag/cell

     iteration # 16     ecut=    50.00 Ry     beta=0.70
     Davidson diagonalization with overlap
     ethr =  9.47E-11,  avg # of iterations =  1.0

     negative rho (up, down):  0.000E+00 1.937E-04

     Magnetic moment per site:
     atom:    1    charge:   14.4439    magn:    2.2303    constr:    0.0000

     total cpu time spent up to now is       56.2 secs

     total energy              =    -329.26099384 Ry
     Harris-Foulkes estimate   =    -329.26099384 Ry
     estimated scf accuracy    <       0.00000002 Ry

     total magnetization       =     2.18 Bohr mag/cell
     absolute magnetization    =     2.30 Bohr mag/cell

     iteration # 17     ecut=    50.00 Ry     beta=0.70
     Davidson diagonalization with overlap
     ethr =  9.47E-11,  avg # of iterations =  1.0

     negative rho (up, down):  0.000E+00 1.934E-04

     Magnetic moment per site:
     atom:    1    charge:   14.4439    magn:    2.2295    constr:    0.0000

     total cpu time spent up to now is       59.1 secs

     total energy              =    -329.26099386 Ry
     Harris-Foulkes estimate   =    -329.26099384 Ry
     estimated scf accuracy    <       0.00000002 Ry

     total magnetization       =     2.18 Bohr mag/cell
     absolute magnetization    =     2.30 Bohr mag/cell

     iteration # 18     ecut=    50.00 Ry     beta=0.70
     Davidson diagonalization with overlap
     ethr =  9.47E-11,  avg # of iterations =  1.8

     negative rho (up, down):  0.000E+00 1.934E-04

     Magnetic moment per site:
     atom:    1    charge:   14.4439    magn:    2.2294    constr:    0.0000

     total cpu time spent up to now is       62.3 secs

     End of self-consistent calculation

     Number of k-points >= 100: set verbosity='high' to print the bands.

     the Fermi energy is    16.9609 ev

!    total energy              =    -329.26099388 Ry
     Harris-Foulkes estimate   =    -329.26099387 Ry
     estimated scf accuracy    <          3.7E-10 Ry

     total all-electron energy =     -2545.557529 Ry

     The total energy is the sum of the following terms:

     one-electron contribution =    -115.05942877 Ry
     hartree contribution      =      67.36819365 Ry
     xc contribution           =     -34.79157757 Ry
     ewald contribution        =    -170.63072585 Ry
     one-center paw contrib.   =     -76.14924467 Ry
     smearing contrib. (-TS)   =       0.00178933 Ry

     total magnetization       =     2.18 Bohr mag/cell
     absolute magnetization    =     2.30 Bohr mag/cell

     convergence has been achieved in  18 iterations

     Forces acting on atoms (Ry/au):


     negative rho (up, down):  0.000E+00 1.934E-04
     atom    1 type  1   force =     0.00000000    0.00000000    0.00000000

     Total force =     0.000000     Total SCF correction =     0.000000


     entering subroutine stress ...


     negative rho (up, down):  0.000E+00 1.934E-04
          total   stress  (Ry/bohr**3)                   (kbar)     P= -191.48
  -0.00130163   0.00000000  -0.00000000       -191.48      0.00     -0.00
   0.00000000  -0.00130163   0.00000000          0.00   -191.48      0.00
  -0.00000000   0.00000000  -0.00130163         -0.00      0.00   -191.48


     Writing output data file Fe_bcc.save

     init_run     :      2.20s CPU      2.26s WALL (       1 calls)
     electrons    :     59.15s CPU     59.62s WALL (       1 calls)
     forces       :      0.19s CPU      0.19s WALL (       1 calls)
     stress       :      0.71s CPU      0.72s WALL (       1 calls)

     Called by init_run:
     wfcinit      :      1.12s CPU      1.13s WALL (       1 calls)
     potinit      :      0.54s CPU      0.56s WALL (       1 calls)

     Called by electrons:
     c_bands      :     42.33s CPU     42.50s WALL (      18 calls)
     sum_band     :      7.76s CPU      7.86s WALL (      18 calls)
     v_of_rho     :      0.41s CPU      0.42s WALL (      19 calls)
     newd         :      0.29s CPU      0.31s WALL (      19 calls)
     mix_rho      :      0.06s CPU      0.06s WALL (      18 calls)

     Called by c_bands:
     init_us_2    :      0.96s CPU      0.97s WALL (    5616 calls)
     cegterg      :     40.40s CPU     40.51s WALL (    2592 calls)

     Called by *egterg:
     h_psi        :     34.61s CPU     34.91s WALL (    7632 calls)
     s_psi        :      0.89s CPU      0.73s WALL (    7632 calls)
     g_psi        :      0.20s CPU      0.20s WALL (    4896 calls)
     cdiaghg      :      2.08s CPU      2.10s WALL (    7488 calls)

     Called by h_psi:
     add_vuspsi   :      0.91s CPU      0.78s WALL (    7632 calls)

     General routines
     calbec       :      1.01s CPU      1.02s WALL (   10512 calls)
     fft          :      0.21s CPU      0.21s WALL (     623 calls)
     ffts         :      0.03s CPU      0.03s WALL (      74 calls)
     fftw         :     35.59s CPU     35.95s WALL (  178562 calls)
     interpolate  :      0.06s CPU      0.06s WALL (      74 calls)
     davcio       :      0.00s CPU      0.01s WALL (     144 calls)


     PAW routines
     PAW_pot      :      8.81s CPU      9.00s WALL (      19 calls)
     PAW_symme    :      0.02s CPU      0.02s WALL (      37 calls)

     PWSCF        :  1m 2.86s CPU     1m 3.51s WALL


   This run was terminated on:  10:46:51  11May2015            

=------------------------------------------------------------------------------=
   JOB DONE.
=------------------------------------------------------------------------------=
