
     Program PWSCF v.5.1.2 starts on 11May2015 at 10:40: 4 

     This program is part of the open-source Quantum ESPRESSO suite
     for quantum simulation of materials; please cite
         "P. Giannozzi et al., J. Phys.:Condens. Matter 21 395502 (2009);
          URL http://www.quantum-espresso.org", 
     in publications or presentations arising from this work. More details at
     http://www.quantum-espresso.org/quote

     Serial version
     Reading input from Fe_bcc_5.39_12.pw.in

     Current dimensions of program PWSCF are:
     Max number of different atomic species (ntypx) = 10
     Max number of k-points (npk) =  40000
     Max angular momentum in pseudopotentials (lmaxx) =  3
               file Fe.pbe-spn-kjpaw_psl.0.2.1.UPF: wavefunction(s)  3D renormalized

     G-vector sticks info
     --------------------
     sticks:   dense  smooth     PW     G-vecs:    dense   smooth      PW
     Sum         411     333    103                 5233     3781     683

     Generating pointlists ...
     new r_m :   0.3572 (alat units)  1.9255 (a.u.) for type    1


     bravais-lattice index     =            3
     lattice parameter (alat)  =       5.3900  a.u.
     unit-cell volume          =      78.2954 (a.u.)^3
     number of atoms/cell      =            1
     number of atomic types    =            1
     number of electrons       =        16.00
     number of Kohn-Sham states=           12
     kinetic-energy cutoff     =      50.0000  Ry
     charge density cutoff     =     250.0000  Ry
     convergence threshold     =      1.0E-08
     mixing beta               =       0.7000
     number of iterations used =            8  plain     mixing
     Exchange-correlation      =  SLA  PW   PBX  PBC ( 1  4  3  4 0 0)

     celldm(1)=   5.390000  celldm(2)=   0.000000  celldm(3)=   0.000000
     celldm(4)=   0.000000  celldm(5)=   0.000000  celldm(6)=   0.000000

     crystal axes: (cart. coord. in units of alat)
               a(1) = (   0.500000   0.500000   0.500000 )  
               a(2) = (  -0.500000   0.500000   0.500000 )  
               a(3) = (  -0.500000  -0.500000   0.500000 )  

     reciprocal axes: (cart. coord. in units 2 pi/alat)
               b(1) = (  1.000000  0.000000  1.000000 )  
               b(2) = ( -1.000000  1.000000  0.000000 )  
               b(3) = (  0.000000 -1.000000  1.000000 )  


     PseudoPot. # 1 for Fe read from file:
     ./Fe.pbe-spn-kjpaw_psl.0.2.1.UPF
     MD5 check sum: a0a08122d52b112de96d1da1d7dd020f
     Pseudo is Projector augmented-wave + core cor, Zval = 16.0
     Generated using "atomic" code by A. Dal Corso  v.5.0.2 svn rev. 9415
     Shape of augmentation charge: PSQ
     Using radial grid of 1191 points,  6 beta functions with: 
                l(1) =   0
                l(2) =   0
                l(3) =   1
                l(4) =   1
                l(5) =   2
                l(6) =   2
     Q(r) pseudized with 0 coefficients 


     atomic species   valence    mass     pseudopotential
        Fe            16.00    55.85000     Fe( 1.00)

     Starting magnetic structure 
     atomic species   magnetization
        Fe           0.700

     48 Sym. Ops., with inversion, found



   Cartesian axes

     site n.     atom                  positions (alat units)
         1           Fe  tau(   1) = (   0.0000000   0.0000000   0.0000000  )

     number of k points=   144  Marzari-Vanderbilt smearing, width (Ry)=  0.0250

     Number of k-points >= 100: set verbosity='high' to print them.

     Dense  grid:     5233 G-vectors     FFT dimensions: (  24,  24,  24)

     Smooth grid:     3781 G-vectors     FFT dimensions: (  24,  24,  24)

     Largest allocated arrays     est. size (Mb)     dimensions
        Kohn-Sham Wavefunctions         0.09 Mb     (     484,   12)
        NL pseudopotentials             0.13 Mb     (     484,   18)
        Each V/rho on FFT grid          0.42 Mb     (   13824,   2)
        Each G-vector array             0.04 Mb     (    5233)
        G-vector shells                 0.00 Mb     (      86)
     Largest temporary arrays     est. size (Mb)     dimensions
        Auxiliary wavefunctions         0.35 Mb     (     484,   48)
        Each subspace H/S matrix        0.04 Mb     (      48,   48)
        Each <psi_i|beta_j> matrix      0.00 Mb     (      18,   12)
        Arrays for rho mixing           1.69 Mb     (   13824,    8)

     Check: negative/imaginary core charge=   -0.000419    0.000000

     Initial potential from superposition of free atoms

     starting charge   15.99956, renormalised to   16.00000
     Starting wfc are   13 randomized atomic wfcs

     total cpu time spent up to now is        2.6 secs

     Self-consistent Calculation

     iteration #  1     ecut=    50.00 Ry     beta=0.70
     Davidson diagonalization with overlap
     ethr =  1.00E-02,  avg # of iterations =  3.2

     negative rho (up, down):  0.000E+00 3.371E-04

     Magnetic moment per site:
     atom:    1    charge:   14.2812    magn:    5.6946    constr:    0.0000

     total cpu time spent up to now is        6.4 secs

     total energy              =    -328.98263242 Ry
     Harris-Foulkes estimate   =    -328.05686494 Ry
     estimated scf accuracy    <       1.51141129 Ry

     total magnetization       =     3.85 Bohr mag/cell
     absolute magnetization    =     3.88 Bohr mag/cell

     iteration #  2     ecut=    50.00 Ry     beta=0.70
     Davidson diagonalization with overlap
     ethr =  9.45E-03,  avg # of iterations =  1.2

     negative rho (up, down):  0.000E+00 3.592E-04

     Magnetic moment per site:
     atom:    1    charge:   14.5080    magn:    3.4868    constr:    0.0000

     total cpu time spent up to now is        9.3 secs

     total energy              =    -329.16090416 Ry
     Harris-Foulkes estimate   =    -329.09913053 Ry
     estimated scf accuracy    <       0.34400375 Ry

     total magnetization       =     3.07 Bohr mag/cell
     absolute magnetization    =     3.19 Bohr mag/cell

     iteration #  3     ecut=    50.00 Ry     beta=0.70
     Davidson diagonalization with overlap
     ethr =  2.15E-03,  avg # of iterations =  2.0

     negative rho (up, down):  0.000E+00 3.613E-04

     Magnetic moment per site:
     atom:    1    charge:   14.3922    magn:    2.4787    constr:    0.0000

     total cpu time spent up to now is       12.6 secs

     total energy              =    -329.18279609 Ry
     Harris-Foulkes estimate   =    -329.34184991 Ry
     estimated scf accuracy    <       0.46456809 Ry

     total magnetization       =     2.49 Bohr mag/cell
     absolute magnetization    =     2.63 Bohr mag/cell

     iteration #  4     ecut=    50.00 Ry     beta=0.70
     Davidson diagonalization with overlap
     ethr =  2.15E-03,  avg # of iterations =  2.0

     negative rho (up, down):  0.000E+00 2.031E-04

     Magnetic moment per site:
     atom:    1    charge:   14.4247    magn:    2.2588    constr:    0.0000

     total cpu time spent up to now is       15.7 secs

     total energy              =    -329.25888247 Ry
     Harris-Foulkes estimate   =    -329.25797789 Ry
     estimated scf accuracy    <       0.00210193 Ry

     total magnetization       =     2.31 Bohr mag/cell
     absolute magnetization    =     2.47 Bohr mag/cell

     iteration #  5     ecut=    50.00 Ry     beta=0.70
     Davidson diagonalization with overlap
     ethr =  1.31E-05,  avg # of iterations =  3.4

     negative rho (up, down):  0.000E+00 1.965E-04

     Magnetic moment per site:
     atom:    1    charge:   14.4116    magn:    2.2525    constr:    0.0000

     total cpu time spent up to now is       20.1 secs

     total energy              =    -329.26220926 Ry
     Harris-Foulkes estimate   =    -329.26198522 Ry
     estimated scf accuracy    <       0.00041780 Ry

     total magnetization       =     2.19 Bohr mag/cell
     absolute magnetization    =     2.32 Bohr mag/cell

     iteration #  6     ecut=    50.00 Ry     beta=0.70
     Davidson diagonalization with overlap
     ethr =  2.61E-06,  avg # of iterations =  1.9

     negative rho (up, down):  0.000E+00 1.411E-04

     Magnetic moment per site:
     atom:    1    charge:   14.4089    magn:    2.1681    constr:    0.0000

     total cpu time spent up to now is       23.4 secs

     total energy              =    -329.26223673 Ry
     Harris-Foulkes estimate   =    -329.26234667 Ry
     estimated scf accuracy    <       0.00026757 Ry

     total magnetization       =     2.17 Bohr mag/cell
     absolute magnetization    =     2.30 Bohr mag/cell

     iteration #  7     ecut=    50.00 Ry     beta=0.70
     Davidson diagonalization with overlap
     ethr =  1.67E-06,  avg # of iterations =  1.5

     negative rho (up, down):  0.000E+00 1.643E-04

     Magnetic moment per site:
     atom:    1    charge:   14.4128    magn:    2.1992    constr:    0.0000

     total cpu time spent up to now is       26.4 secs

     total energy              =    -329.26257564 Ry
     Harris-Foulkes estimate   =    -329.26248869 Ry
     estimated scf accuracy    <       0.00003909 Ry

     total magnetization       =     2.13 Bohr mag/cell
     absolute magnetization    =     2.24 Bohr mag/cell

     iteration #  8     ecut=    50.00 Ry     beta=0.70
     Davidson diagonalization with overlap
     ethr =  2.44E-07,  avg # of iterations =  2.0

     negative rho (up, down):  0.000E+00 1.610E-04

     Magnetic moment per site:
     atom:    1    charge:   14.4138    magn:    2.1843    constr:    0.0000

     total cpu time spent up to now is       30.0 secs

     total energy              =    -329.26259453 Ry
     Harris-Foulkes estimate   =    -329.26258922 Ry
     estimated scf accuracy    <       0.00001219 Ry

     total magnetization       =     2.14 Bohr mag/cell
     absolute magnetization    =     2.26 Bohr mag/cell

     iteration #  9     ecut=    50.00 Ry     beta=0.70
     Davidson diagonalization with overlap
     ethr =  7.62E-08,  avg # of iterations =  2.2

     negative rho (up, down):  0.000E+00 1.575E-04

     Magnetic moment per site:
     atom:    1    charge:   14.4127    magn:    2.1776    constr:    0.0000

     total cpu time spent up to now is       34.0 secs

     total energy              =    -329.26260572 Ry
     Harris-Foulkes estimate   =    -329.26260343 Ry
     estimated scf accuracy    <       0.00000353 Ry

     total magnetization       =     2.13 Bohr mag/cell
     absolute magnetization    =     2.25 Bohr mag/cell

     iteration # 10     ecut=    50.00 Ry     beta=0.70
     Davidson diagonalization with overlap
     ethr =  2.21E-08,  avg # of iterations =  1.2

     negative rho (up, down):  0.000E+00 1.564E-04

     Magnetic moment per site:
     atom:    1    charge:   14.4126    magn:    2.1741    constr:    0.0000

     total cpu time spent up to now is       37.0 secs

     total energy              =    -329.26260724 Ry
     Harris-Foulkes estimate   =    -329.26260678 Ry
     estimated scf accuracy    <       0.00000025 Ry

     total magnetization       =     2.13 Bohr mag/cell
     absolute magnetization    =     2.24 Bohr mag/cell

     iteration # 11     ecut=    50.00 Ry     beta=0.70
     Davidson diagonalization with overlap
     ethr =  1.56E-09,  avg # of iterations =  2.8

     negative rho (up, down):  0.000E+00 1.562E-04

     Magnetic moment per site:
     atom:    1    charge:   14.4126    magn:    2.1735    constr:    0.0000

     total cpu time spent up to now is       41.0 secs

     total energy              =    -329.26260805 Ry
     Harris-Foulkes estimate   =    -329.26260770 Ry
     estimated scf accuracy    <       0.00000002 Ry

     total magnetization       =     2.13 Bohr mag/cell
     absolute magnetization    =     2.24 Bohr mag/cell

     iteration # 12     ecut=    50.00 Ry     beta=0.70
     Davidson diagonalization with overlap
     ethr =  1.17E-10,  avg # of iterations =  2.1

     negative rho (up, down):  0.000E+00 1.561E-04

     Magnetic moment per site:
     atom:    1    charge:   14.4126    magn:    2.1732    constr:    0.0000

     total cpu time spent up to now is       44.4 secs

     End of self-consistent calculation

     Number of k-points >= 100: set verbosity='high' to print the bands.

     the Fermi energy is    17.8263 ev

!    total energy              =    -329.26260814 Ry
     Harris-Foulkes estimate   =    -329.26260808 Ry
     estimated scf accuracy    <          7.3E-09 Ry

     total all-electron energy =     -2545.559144 Ry

     The total energy is the sum of the following terms:

     one-electron contribution =    -111.51571803 Ry
     hartree contribution      =      66.06220410 Ry
     xc contribution           =     -34.81290476 Ry
     ewald contribution        =    -172.84670930 Ry
     one-center paw contrib.   =     -76.15050218 Ry
     smearing contrib. (-TS)   =       0.00102203 Ry

     total magnetization       =     2.13 Bohr mag/cell
     absolute magnetization    =     2.24 Bohr mag/cell

     convergence has been achieved in  12 iterations

     Forces acting on atoms (Ry/au):


     negative rho (up, down):  0.000E+00 1.561E-04
     atom    1 type  1   force =     0.00000000    0.00000000    0.00000000

     Total force =     0.000000     Total SCF correction =     0.000000


     entering subroutine stress ...


     negative rho (up, down):  0.000E+00 1.561E-04
          total   stress  (Ry/bohr**3)                   (kbar)     P= -127.59
  -0.00086731  -0.00000000   0.00000000       -127.59     -0.00      0.00
  -0.00000000  -0.00086731  -0.00000000         -0.00   -127.59     -0.00
   0.00000000  -0.00000000  -0.00086731          0.00     -0.00   -127.59


     Writing output data file Fe_bcc.save

     init_run     :      2.17s CPU      2.30s WALL (       1 calls)
     electrons    :     41.11s CPU     41.77s WALL (       1 calls)
     forces       :      0.20s CPU      0.21s WALL (       1 calls)
     stress       :      0.74s CPU      0.78s WALL (       1 calls)

     Called by init_run:
     wfcinit      :      1.13s CPU      1.19s WALL (       1 calls)
     potinit      :      0.52s CPU      0.55s WALL (       1 calls)

     Called by electrons:
     c_bands      :     29.76s CPU     30.08s WALL (      12 calls)
     sum_band     :      5.25s CPU      5.38s WALL (      12 calls)
     v_of_rho     :      0.28s CPU      0.29s WALL (      13 calls)
     newd         :      0.20s CPU      0.21s WALL (      13 calls)
     mix_rho      :      0.03s CPU      0.04s WALL (      12 calls)

     Called by c_bands:
     init_us_2    :      0.67s CPU      0.69s WALL (    3888 calls)
     cegterg      :     28.51s CPU     28.78s WALL (    1728 calls)

     Called by *egterg:
     h_psi        :     24.40s CPU     24.88s WALL (    5547 calls)
     s_psi        :      0.68s CPU      0.55s WALL (    5547 calls)
     g_psi        :      0.14s CPU      0.14s WALL (    3675 calls)
     cdiaghg      :      1.58s CPU      1.62s WALL (    5403 calls)

     Called by h_psi:
     add_vuspsi   :      0.71s CPU      0.61s WALL (    5547 calls)

     General routines
     calbec       :      0.74s CPU      0.77s WALL (    7563 calls)
     fft          :      0.15s CPU      0.15s WALL (     437 calls)
     ffts         :      0.02s CPU      0.02s WALL (      50 calls)
     fftw         :     24.79s CPU     25.32s WALL (  122778 calls)
     interpolate  :      0.04s CPU      0.04s WALL (      50 calls)
     davcio       :      0.00s CPU      0.01s WALL (     144 calls)


     PAW routines
     PAW_pot      :      6.09s CPU      6.30s WALL (      13 calls)
     PAW_symme    :      0.02s CPU      0.02s WALL (      25 calls)

     PWSCF        :    44.76s CPU        45.67s WALL


   This run was terminated on:  10:40:50  11May2015            

=------------------------------------------------------------------------------=
   JOB DONE.
=------------------------------------------------------------------------------=
