
     Program PWSCF v.5.1.2 starts on 11May2015 at 10:27:45 

     This program is part of the open-source Quantum ESPRESSO suite
     for quantum simulation of materials; please cite
         "P. Giannozzi et al., J. Phys.:Condens. Matter 21 395502 (2009);
          URL http://www.quantum-espresso.org", 
     in publications or presentations arising from this work. More details at
     http://www.quantum-espresso.org/quote

     Serial version
     Reading input from Fe_bcc_5.4_10.pw.in

     Current dimensions of program PWSCF are:
     Max number of different atomic species (ntypx) = 10
     Max number of k-points (npk) =  40000
     Max angular momentum in pseudopotentials (lmaxx) =  3
               file Fe.pbe-spn-kjpaw_psl.0.2.1.UPF: wavefunction(s)  3D renormalized

     G-vector sticks info
     --------------------
     sticks:   dense  smooth     PW     G-vecs:    dense   smooth      PW
     Sum         411     333    117                 5281     3781     767

     Generating pointlists ...
     new r_m :   0.3572 (alat units)  1.9291 (a.u.) for type    1


     bravais-lattice index     =            3
     lattice parameter (alat)  =       5.4000  a.u.
     unit-cell volume          =      78.7320 (a.u.)^3
     number of atoms/cell      =            1
     number of atomic types    =            1
     number of electrons       =        16.00
     number of Kohn-Sham states=           12
     kinetic-energy cutoff     =      50.0000  Ry
     charge density cutoff     =     250.0000  Ry
     convergence threshold     =      1.0E-08
     mixing beta               =       0.7000
     number of iterations used =            8  plain     mixing
     Exchange-correlation      =  SLA  PW   PBX  PBC ( 1  4  3  4 0 0)

     celldm(1)=   5.400000  celldm(2)=   0.000000  celldm(3)=   0.000000
     celldm(4)=   0.000000  celldm(5)=   0.000000  celldm(6)=   0.000000

     crystal axes: (cart. coord. in units of alat)
               a(1) = (   0.500000   0.500000   0.500000 )  
               a(2) = (  -0.500000   0.500000   0.500000 )  
               a(3) = (  -0.500000  -0.500000   0.500000 )  

     reciprocal axes: (cart. coord. in units 2 pi/alat)
               b(1) = (  1.000000  0.000000  1.000000 )  
               b(2) = ( -1.000000  1.000000  0.000000 )  
               b(3) = (  0.000000 -1.000000  1.000000 )  


     PseudoPot. # 1 for Fe read from file:
     ./Fe.pbe-spn-kjpaw_psl.0.2.1.UPF
     MD5 check sum: a0a08122d52b112de96d1da1d7dd020f
     Pseudo is Projector augmented-wave + core cor, Zval = 16.0
     Generated using "atomic" code by A. Dal Corso  v.5.0.2 svn rev. 9415
     Shape of augmentation charge: PSQ
     Using radial grid of 1191 points,  6 beta functions with: 
                l(1) =   0
                l(2) =   0
                l(3) =   1
                l(4) =   1
                l(5) =   2
                l(6) =   2
     Q(r) pseudized with 0 coefficients 


     atomic species   valence    mass     pseudopotential
        Fe            16.00    55.85000     Fe( 1.00)

     Starting magnetic structure 
     atomic species   magnetization
        Fe           0.700

     48 Sym. Ops., with inversion, found



   Cartesian axes

     site n.     atom                  positions (alat units)
         1           Fe  tau(   1) = (   0.0000000   0.0000000   0.0000000  )

     number of k points=    94  Marzari-Vanderbilt smearing, width (Ry)=  0.0250
                       cart. coord. in units 2pi/alat
        k(    1) = (   0.0000000   0.0000000   0.0000000), wk =   0.0010000
        k(    2) = (   0.0000000  -0.1000000   0.1000000), wk =   0.0120000
        k(    3) = (   0.0000000  -0.2000000   0.2000000), wk =   0.0120000
        k(    4) = (   0.0000000  -0.3000000   0.3000000), wk =   0.0120000
        k(    5) = (   0.0000000  -0.4000000   0.4000000), wk =   0.0120000
        k(    6) = (   0.0000000   0.5000000  -0.5000000), wk =   0.0060000
        k(    7) = (  -0.1000000  -0.1000000   0.2000000), wk =   0.0240000
        k(    8) = (  -0.1000000  -0.2000000   0.3000000), wk =   0.0480000
        k(    9) = (  -0.1000000  -0.3000000   0.4000000), wk =   0.0480000
        k(   10) = (  -0.1000000   0.6000000  -0.5000000), wk =   0.0480000
        k(   11) = (  -0.2000000  -0.2000000   0.4000000), wk =   0.0240000
        k(   12) = (  -0.2000000   0.7000000  -0.5000000), wk =   0.0480000
        k(   13) = (  -0.2000000   0.6000000  -0.4000000), wk =   0.0240000
        k(   14) = (  -0.3000000   0.7000000  -0.4000000), wk =   0.0240000
        k(   15) = (   0.0000000   0.0000000   0.2000000), wk =   0.0060000
        k(   16) = (   0.0000000  -0.1000000   0.3000000), wk =   0.0240000
        k(   17) = (   0.0000000  -0.2000000   0.4000000), wk =   0.0240000
        k(   18) = (   0.0000000  -0.3000000   0.5000000), wk =   0.0240000
        k(   19) = (   0.0000000   0.6000000  -0.4000000), wk =   0.0120000
        k(   20) = (  -0.1000000  -0.1000000   0.4000000), wk =   0.0240000
        k(   21) = (  -0.1000000  -0.2000000   0.5000000), wk =   0.0480000
        k(   22) = (  -0.1000000   0.7000000  -0.4000000), wk =   0.0480000
        k(   23) = (  -0.2000000   0.2000000   0.2000000), wk =   0.0080000
        k(   24) = (  -0.2000000   0.8000000  -0.4000000), wk =   0.0240000
        k(   25) = (  -0.2000000   0.7000000  -0.3000000), wk =   0.0240000
        k(   26) = (  -0.3000000   0.3000000   0.2000000), wk =   0.0240000
        k(   27) = (   0.6000000  -0.6000000   0.2000000), wk =   0.0240000
        k(   28) = (   0.6000000  -0.7000000   0.3000000), wk =   0.0240000
        k(   29) = (   0.5000000  -0.5000000   0.2000000), wk =   0.0120000
        k(   30) = (   0.5000000  -0.6000000   0.3000000), wk =   0.0480000
        k(   31) = (   0.4000000  -0.6000000   0.4000000), wk =   0.0080000
        k(   32) = (   0.0000000   0.0000000   0.4000000), wk =   0.0060000
        k(   33) = (   0.0000000  -0.1000000   0.5000000), wk =   0.0240000
        k(   34) = (   0.0000000  -0.2000000   0.6000000), wk =   0.0240000
        k(   35) = (   0.0000000   0.7000000  -0.3000000), wk =   0.0120000
        k(   36) = (  -0.1000000  -0.1000000   0.6000000), wk =   0.0240000
        k(   37) = (  -0.1000000   0.8000000  -0.3000000), wk =   0.0480000
        k(   38) = (  -0.2000000   0.8000000  -0.2000000), wk =   0.0080000
        k(   39) = (   0.6000000  -0.6000000   0.4000000), wk =   0.0080000
        k(   40) = (   0.5000000  -0.5000000   0.4000000), wk =   0.0120000
        k(   41) = (   0.0000000   0.0000000   0.6000000), wk =   0.0060000
        k(   42) = (   0.0000000  -0.1000000   0.7000000), wk =   0.0240000
        k(   43) = (   0.0000000   0.8000000  -0.2000000), wk =   0.0120000
        k(   44) = (  -0.1000000   0.9000000  -0.2000000), wk =   0.0240000
        k(   45) = (   0.0000000   0.0000000   0.8000000), wk =   0.0060000
        k(   46) = (   0.0000000   0.9000000  -0.1000000), wk =   0.0120000
        k(   47) = (   0.0000000   0.0000000  -1.0000000), wk =   0.0010000
        k(   48) = (   0.0000000   0.0000000   0.0000000), wk =   0.0010000
        k(   49) = (   0.0000000  -0.1000000   0.1000000), wk =   0.0120000
        k(   50) = (   0.0000000  -0.2000000   0.2000000), wk =   0.0120000
        k(   51) = (   0.0000000  -0.3000000   0.3000000), wk =   0.0120000
        k(   52) = (   0.0000000  -0.4000000   0.4000000), wk =   0.0120000
        k(   53) = (   0.0000000   0.5000000  -0.5000000), wk =   0.0060000
        k(   54) = (  -0.1000000  -0.1000000   0.2000000), wk =   0.0240000
        k(   55) = (  -0.1000000  -0.2000000   0.3000000), wk =   0.0480000
        k(   56) = (  -0.1000000  -0.3000000   0.4000000), wk =   0.0480000
        k(   57) = (  -0.1000000   0.6000000  -0.5000000), wk =   0.0480000
        k(   58) = (  -0.2000000  -0.2000000   0.4000000), wk =   0.0240000
        k(   59) = (  -0.2000000   0.7000000  -0.5000000), wk =   0.0480000
        k(   60) = (  -0.2000000   0.6000000  -0.4000000), wk =   0.0240000
        k(   61) = (  -0.3000000   0.7000000  -0.4000000), wk =   0.0240000
        k(   62) = (   0.0000000   0.0000000   0.2000000), wk =   0.0060000
        k(   63) = (   0.0000000  -0.1000000   0.3000000), wk =   0.0240000
        k(   64) = (   0.0000000  -0.2000000   0.4000000), wk =   0.0240000
        k(   65) = (   0.0000000  -0.3000000   0.5000000), wk =   0.0240000
        k(   66) = (   0.0000000   0.6000000  -0.4000000), wk =   0.0120000
        k(   67) = (  -0.1000000  -0.1000000   0.4000000), wk =   0.0240000
        k(   68) = (  -0.1000000  -0.2000000   0.5000000), wk =   0.0480000
        k(   69) = (  -0.1000000   0.7000000  -0.4000000), wk =   0.0480000
        k(   70) = (  -0.2000000   0.2000000   0.2000000), wk =   0.0080000
        k(   71) = (  -0.2000000   0.8000000  -0.4000000), wk =   0.0240000
        k(   72) = (  -0.2000000   0.7000000  -0.3000000), wk =   0.0240000
        k(   73) = (  -0.3000000   0.3000000   0.2000000), wk =   0.0240000
        k(   74) = (   0.6000000  -0.6000000   0.2000000), wk =   0.0240000
        k(   75) = (   0.6000000  -0.7000000   0.3000000), wk =   0.0240000
        k(   76) = (   0.5000000  -0.5000000   0.2000000), wk =   0.0120000
        k(   77) = (   0.5000000  -0.6000000   0.3000000), wk =   0.0480000
        k(   78) = (   0.4000000  -0.6000000   0.4000000), wk =   0.0080000
        k(   79) = (   0.0000000   0.0000000   0.4000000), wk =   0.0060000
        k(   80) = (   0.0000000  -0.1000000   0.5000000), wk =   0.0240000
        k(   81) = (   0.0000000  -0.2000000   0.6000000), wk =   0.0240000
        k(   82) = (   0.0000000   0.7000000  -0.3000000), wk =   0.0120000
        k(   83) = (  -0.1000000  -0.1000000   0.6000000), wk =   0.0240000
        k(   84) = (  -0.1000000   0.8000000  -0.3000000), wk =   0.0480000
        k(   85) = (  -0.2000000   0.8000000  -0.2000000), wk =   0.0080000
        k(   86) = (   0.6000000  -0.6000000   0.4000000), wk =   0.0080000
        k(   87) = (   0.5000000  -0.5000000   0.4000000), wk =   0.0120000
        k(   88) = (   0.0000000   0.0000000   0.6000000), wk =   0.0060000
        k(   89) = (   0.0000000  -0.1000000   0.7000000), wk =   0.0240000
        k(   90) = (   0.0000000   0.8000000  -0.2000000), wk =   0.0120000
        k(   91) = (  -0.1000000   0.9000000  -0.2000000), wk =   0.0240000
        k(   92) = (   0.0000000   0.0000000   0.8000000), wk =   0.0060000
        k(   93) = (   0.0000000   0.9000000  -0.1000000), wk =   0.0120000
        k(   94) = (   0.0000000   0.0000000  -1.0000000), wk =   0.0010000

     Dense  grid:     5281 G-vectors     FFT dimensions: (  24,  24,  24)

     Smooth grid:     3781 G-vectors     FFT dimensions: (  24,  24,  24)

     Largest allocated arrays     est. size (Mb)     dimensions
        Kohn-Sham Wavefunctions         0.09 Mb     (     478,   12)
        NL pseudopotentials             0.13 Mb     (     478,   18)
        Each V/rho on FFT grid          0.42 Mb     (   13824,   2)
        Each G-vector array             0.04 Mb     (    5281)
        G-vector shells                 0.00 Mb     (      87)
     Largest temporary arrays     est. size (Mb)     dimensions
        Auxiliary wavefunctions         0.35 Mb     (     478,   48)
        Each subspace H/S matrix        0.04 Mb     (      48,   48)
        Each <psi_i|beta_j> matrix      0.00 Mb     (      18,   12)
        Arrays for rho mixing           1.69 Mb     (   13824,    8)

     Check: negative/imaginary core charge=   -0.000421    0.000000

     Initial potential from superposition of free atoms

     starting charge   15.99956, renormalised to   16.00000
     Starting wfc are   13 randomized atomic wfcs

     total cpu time spent up to now is        2.3 secs

     Self-consistent Calculation

     iteration #  1     ecut=    50.00 Ry     beta=0.70
     Davidson diagonalization with overlap
     ethr =  1.00E-02,  avg # of iterations =  3.2

     negative rho (up, down):  0.000E+00 3.380E-04

     Magnetic moment per site:
     atom:    1    charge:   14.2865    magn:    5.6902    constr:    0.0000

     total cpu time spent up to now is        5.1 secs

     total energy              =    -328.98847749 Ry
     Harris-Foulkes estimate   =    -328.05992093 Ry
     estimated scf accuracy    <       1.51241387 Ry

     total magnetization       =     3.84 Bohr mag/cell
     absolute magnetization    =     3.87 Bohr mag/cell

     iteration #  2     ecut=    50.00 Ry     beta=0.70
     Davidson diagonalization with overlap
     ethr =  9.45E-03,  avg # of iterations =  1.2

     negative rho (up, down):  0.000E+00 3.619E-04

     Magnetic moment per site:
     atom:    1    charge:   14.5119    magn:    3.4778    constr:    0.0000

     total cpu time spent up to now is        7.5 secs

     total energy              =    -329.16236913 Ry
     Harris-Foulkes estimate   =    -329.09991818 Ry
     estimated scf accuracy    <       0.34221611 Ry

     total magnetization       =     3.06 Bohr mag/cell
     absolute magnetization    =     3.19 Bohr mag/cell

     iteration #  3     ecut=    50.00 Ry     beta=0.70
     Davidson diagonalization with overlap
     ethr =  2.14E-03,  avg # of iterations =  2.1

     negative rho (up, down):  0.000E+00 3.683E-04

     Magnetic moment per site:
     atom:    1    charge:   14.3961    magn:    2.5028    constr:    0.0000

     total cpu time spent up to now is       10.4 secs

     total energy              =    -329.18214269 Ry
     Harris-Foulkes estimate   =    -329.34199743 Ry
     estimated scf accuracy    <       0.45922014 Ry

     total magnetization       =     2.53 Bohr mag/cell
     absolute magnetization    =     2.66 Bohr mag/cell

     iteration #  4     ecut=    50.00 Ry     beta=0.70
     Davidson diagonalization with overlap
     ethr =  2.14E-03,  avg # of iterations =  2.1

     negative rho (up, down):  0.000E+00 1.996E-04

     Magnetic moment per site:
     atom:    1    charge:   14.4297    magn:    2.2199    constr:    0.0000

     total cpu time spent up to now is       12.7 secs

     total energy              =    -329.25830536 Ry
     Harris-Foulkes estimate   =    -329.25747620 Ry
     estimated scf accuracy    <       0.00247856 Ry

     total magnetization       =     2.29 Bohr mag/cell
     absolute magnetization    =     2.47 Bohr mag/cell

     iteration #  5     ecut=    50.00 Ry     beta=0.70
     Davidson diagonalization with overlap
     ethr =  1.55E-05,  avg # of iterations =  3.3

     negative rho (up, down):  0.000E+00 1.902E-04

     Magnetic moment per site:
     atom:    1    charge:   14.4126    magn:    2.2089    constr:    0.0000

     total cpu time spent up to now is       15.7 secs

     total energy              =    -329.26254301 Ry
     Harris-Foulkes estimate   =    -329.26213862 Ry
     estimated scf accuracy    <       0.00047032 Ry

     total magnetization       =     2.13 Bohr mag/cell
     absolute magnetization    =     2.28 Bohr mag/cell

     iteration #  6     ecut=    50.00 Ry     beta=0.70
     Davidson diagonalization with overlap
     ethr =  2.94E-06,  avg # of iterations =  1.9

     negative rho (up, down):  0.000E+00 1.237E-04

     Magnetic moment per site:
     atom:    1    charge:   14.4112    magn:    2.0979    constr:    0.0000

     total cpu time spent up to now is       18.2 secs

     total energy              =    -329.26247026 Ry
     Harris-Foulkes estimate   =    -329.26269088 Ry
     estimated scf accuracy    <       0.00035038 Ry

     total magnetization       =     2.11 Bohr mag/cell
     absolute magnetization    =     2.26 Bohr mag/cell

     iteration #  7     ecut=    50.00 Ry     beta=0.70
     Davidson diagonalization with overlap
     ethr =  2.19E-06,  avg # of iterations =  1.5

     negative rho (up, down):  0.000E+00 1.628E-04

     Magnetic moment per site:
     atom:    1    charge:   14.4155    magn:    2.1789    constr:    0.0000

     total cpu time spent up to now is       20.4 secs

     total energy              =    -329.26286032 Ry
     Harris-Foulkes estimate   =    -329.26273923 Ry
     estimated scf accuracy    <       0.00011171 Ry

     total magnetization       =     2.08 Bohr mag/cell
     absolute magnetization    =     2.21 Bohr mag/cell

     iteration #  8     ecut=    50.00 Ry     beta=0.70
     Davidson diagonalization with overlap
     ethr =  6.98E-07,  avg # of iterations =  1.9

     negative rho (up, down):  0.000E+00 1.640E-04

     Magnetic moment per site:
     atom:    1    charge:   14.4171    magn:    2.1785    constr:    0.0000

     total cpu time spent up to now is       22.5 secs

     total energy              =    -329.26292703 Ry
     Harris-Foulkes estimate   =    -329.26291573 Ry
     estimated scf accuracy    <       0.00002680 Ry

     total magnetization       =     2.10 Bohr mag/cell
     absolute magnetization    =     2.24 Bohr mag/cell

     iteration #  9     ecut=    50.00 Ry     beta=0.70
     Davidson diagonalization with overlap
     ethr =  1.68E-07,  avg # of iterations =  1.6

     negative rho (up, down):  0.000E+00 1.550E-04

     Magnetic moment per site:
     atom:    1    charge:   14.4158    magn:    2.1549    constr:    0.0000

     total cpu time spent up to now is       24.7 secs

     total energy              =    -329.26294026 Ry
     Harris-Foulkes estimate   =    -329.26292901 Ry
     estimated scf accuracy    <       0.00002469 Ry

     total magnetization       =     2.10 Bohr mag/cell
     absolute magnetization    =     2.23 Bohr mag/cell

     iteration # 10     ecut=    50.00 Ry     beta=0.70
     Davidson diagonalization with overlap
     ethr =  1.54E-07,  avg # of iterations =  1.3

     negative rho (up, down):  0.000E+00 1.537E-04

     Magnetic moment per site:
     atom:    1    charge:   14.4155    magn:    2.1514    constr:    0.0000

     total cpu time spent up to now is       26.8 secs

     total energy              =    -329.26294658 Ry
     Harris-Foulkes estimate   =    -329.26294580 Ry
     estimated scf accuracy    <       0.00000075 Ry

     total magnetization       =     2.10 Bohr mag/cell
     absolute magnetization    =     2.23 Bohr mag/cell

     iteration # 11     ecut=    50.00 Ry     beta=0.70
     Davidson diagonalization with overlap
     ethr =  4.67E-09,  avg # of iterations =  2.5

     negative rho (up, down):  0.000E+00 1.536E-04

     Magnetic moment per site:
     atom:    1    charge:   14.4156    magn:    2.1513    constr:    0.0000

     total cpu time spent up to now is       29.2 secs

     total energy              =    -329.26294715 Ry
     Harris-Foulkes estimate   =    -329.26294694 Ry
     estimated scf accuracy    <       0.00000007 Ry

     total magnetization       =     2.10 Bohr mag/cell
     absolute magnetization    =     2.23 Bohr mag/cell

     iteration # 12     ecut=    50.00 Ry     beta=0.70
     Davidson diagonalization with overlap
     ethr =  4.41E-10,  avg # of iterations =  1.6

     negative rho (up, down):  0.000E+00 1.533E-04

     Magnetic moment per site:
     atom:    1    charge:   14.4155    magn:    2.1506    constr:    0.0000

     total cpu time spent up to now is       31.4 secs

     total energy              =    -329.26294722 Ry
     Harris-Foulkes estimate   =    -329.26294716 Ry
     estimated scf accuracy    <       0.00000007 Ry

     total magnetization       =     2.10 Bohr mag/cell
     absolute magnetization    =     2.23 Bohr mag/cell

     iteration # 13     ecut=    50.00 Ry     beta=0.70
     Davidson diagonalization with overlap
     ethr =  4.41E-10,  avg # of iterations =  1.1

     negative rho (up, down):  0.000E+00 1.529E-04

     Magnetic moment per site:
     atom:    1    charge:   14.4155    magn:    2.1499    constr:    0.0000

     total cpu time spent up to now is       33.4 secs

     total energy              =    -329.26294724 Ry
     Harris-Foulkes estimate   =    -329.26294723 Ry
     estimated scf accuracy    <       0.00000002 Ry

     total magnetization       =     2.10 Bohr mag/cell
     absolute magnetization    =     2.22 Bohr mag/cell

     iteration # 14     ecut=    50.00 Ry     beta=0.70
     Davidson diagonalization with overlap
     ethr =  1.20E-10,  avg # of iterations =  1.9

     negative rho (up, down):  0.000E+00 1.530E-04

     Magnetic moment per site:
     atom:    1    charge:   14.4155    magn:    2.1499    constr:    0.0000

     total cpu time spent up to now is       35.5 secs

     End of self-consistent calculation

 ------ SPIN UP ------------


          k = 0.0000 0.0000 0.0000 (   459 PWs)   bands (ev):

   -70.3560 -36.1734 -36.1734 -36.1734   9.3377  15.5382  15.5382  15.5382
    16.4892  16.4892  42.3478  42.3478

          k = 0.0000-0.1000 0.1000 (   463 PWs)   bands (ev):

   -70.3495 -36.2105 -36.1854 -36.1731   9.7432  15.4303  15.5205  15.7532
    16.3982  16.4983  39.9403  41.6613

          k = 0.0000-0.2000 0.2000 (   475 PWs)   bands (ev):

   -70.3324 -36.3066 -36.2183 -36.1739  10.8626  15.1550  15.3810  16.3446
    16.3471  16.5299  35.5304  39.6777

          k = 0.0000-0.3000 0.3000 (   468 PWs)   bands (ev):

   -70.3103 -36.4232 -36.2571 -36.1733  12.2398  14.8283  15.4654  16.5069
    16.5849  17.1456  30.9233  37.6633

          k = 0.0000-0.4000 0.4000 (   474 PWs)   bands (ev):

   -70.2929 -36.5167 -36.2894 -36.1739  12.8413  14.5740  16.4390  16.6431
    17.0531  17.8666  26.8690  36.2801

          k = 0.0000 0.5000-0.5000 (   476 PWs)   bands (ev):

   -70.2862 -36.5518 -36.3013 -36.1743  12.8845  14.4791  16.6298  16.6688
    18.1639  18.2155  24.8183  35.7917

          k =-0.1000-0.1000 0.2000 (   471 PWs)   bands (ev):

   -70.3377 -36.2770 -36.1995 -36.1823  10.5107  15.2950  15.3430  16.2014
    16.2853  16.5545  37.5169  38.7054

          k =-0.1000-0.2000 0.3000 (   468 PWs)   bands (ev):

   -70.3178 -36.3762 -36.2376 -36.1863  11.8361  14.9837  15.1511  16.3169
    16.6426  17.0003  33.3693  36.3910

          k =-0.1000-0.3000 0.4000 (   471 PWs)   bands (ev):

   -70.2982 -36.4733 -36.2806 -36.1873  12.9021  14.6960  15.4849  16.5346
    16.7776  18.0311  28.9503  34.8695

          k =-0.1000 0.6000-0.5000 (   470 PWs)   bands (ev):

   -70.2860 -36.5319 -36.3076 -36.1873  13.0831  14.5357  16.1473  16.6120
    17.2842  19.3138  25.5017  34.0375

          k =-0.2000-0.2000 0.4000 (   465 PWs)   bands (ev):

   -70.3000 -36.4462 -36.2765 -36.2025  13.0475  14.6613  15.0392  16.3798
    16.7882  18.1724  31.3407  32.1499

          k =-0.2000 0.7000-0.5000 (   473 PWs)   bands (ev):

   -70.2861 -36.4916 -36.3276 -36.2095  13.5988  14.5322  15.2462  16.5637
    16.9776  19.9158  27.4809  30.6194

          k =-0.2000 0.6000-0.4000 (   474 PWs)   bands (ev):

   -70.2807 -36.5055 -36.3508 -36.2112  13.5938  14.5475  15.4125  16.6360
    17.1533  21.5027  25.0269  30.1773

          k =-0.3000 0.7000-0.4000 (   471 PWs)   bands (ev):

   -70.2785 -36.4679 -36.3942 -36.2202  14.0839  14.4657  14.9199  16.7541
    16.9884  22.5639  25.9608  27.4231

          k = 0.0000 0.0000 0.2000 (   470 PWs)   bands (ev):

   -70.3432 -36.2209 -36.1984 -36.1984  10.1353  15.5456  15.5456  15.7551
    16.1450  16.6238  39.1057  41.0362

          k = 0.0000-0.1000 0.3000 (   470 PWs)   bands (ev):

   -70.3260 -36.3060 -36.2310 -36.2037  11.2179  15.3521  15.3976  16.0047
    16.2917  16.7549  35.7525  38.7590

          k = 0.0000-0.2000 0.4000 (   468 PWs)   bands (ev):

   -70.3047 -36.4177 -36.2709 -36.2024  12.5241  15.0533  15.1418  16.3207
    17.0193  17.0995  31.2099  37.0008

          k = 0.0000-0.3000 0.5000 (   472 PWs)   bands (ev):

   -70.2876 -36.5080 -36.3033 -36.2008  13.0784  14.8169  15.4365  16.4923
    17.8340  18.1989  27.0753  36.0213

          k = 0.0000 0.6000-0.4000 (   472 PWs)   bands (ev):

   -70.2811 -36.5420 -36.3155 -36.2001  13.1001  14.7283  15.6792  16.4702
    18.1385  19.5017  24.8769  35.4762

          k =-0.1000-0.1000 0.4000 (   464 PWs)   bands (ev):

   -70.3071 -36.3802 -36.2678 -36.2232  12.3866  14.9688  15.3897  16.0165
    16.8123  17.1496  33.5812  34.5467

          k =-0.1000-0.2000 0.5000 (   470 PWs)   bands (ev):

   -70.2886 -36.4632 -36.3130 -36.2264  13.3194  14.6416  15.2615  16.3269
    17.2291  18.4465  29.4639  32.6194

          k =-0.1000 0.7000-0.4000 (   467 PWs)   bands (ev):

   -70.2768 -36.5144 -36.3419 -36.2257  13.4519  14.8196  15.0859  16.4534
    17.7260  20.4512  25.7807  31.7485

          k =-0.2000 0.2000 0.2000 (   477 PWs)   bands (ev):

   -70.3232 -36.3621 -36.2025 -36.2025  11.5684  14.9967  14.9967  16.4738
    16.4738  17.0178  35.5279  35.5279

          k =-0.2000 0.8000-0.4000 (   468 PWs)   bands (ev):

   -70.2754 -36.4836 -36.3733 -36.2352  13.9479  14.2317  15.1145  16.6171
    17.3427  20.7600  27.8479  28.7459

          k =-0.2000 0.7000-0.3000 (   472 PWs)   bands (ev):

   -70.2705 -36.4823 -36.4077 -36.2368  13.9698  14.4961  14.7572  16.8244
    17.3944  23.0147  25.2099  28.0118

          k =-0.3000 0.3000 0.2000 (   471 PWs)   bands (ev):

   -70.3047 -36.4423 -36.2501 -36.2050  12.9115  14.6908  14.8464  16.5251
    16.5965  18.1410  31.3842  33.9380

          k = 0.6000-0.6000 0.2000 (   474 PWs)   bands (ev):

   -70.2902 -36.4964 -36.3003 -36.2071  13.4311  14.4891  15.5846  16.6339
    16.6605  19.6385  27.2724  32.9036

          k = 0.6000-0.7000 0.3000 (   478 PWs)   bands (ev):

   -70.2919 -36.4754 -36.2884 -36.2320  13.8934  14.4920  14.7733  16.6053
    16.6878  19.7717  29.6347  30.3492

          k = 0.5000-0.5000 0.2000 (   472 PWs)   bands (ev):

   -70.2845 -36.5139 -36.3215 -36.2082  13.4141  14.4191  16.1767  16.6758
    16.6804  20.9428  24.9721  32.5378

          k = 0.5000-0.6000 0.3000 (   477 PWs)   bands (ev):

   -70.2837 -36.4725 -36.3425 -36.2405  13.9666  14.4443  15.2595  16.6892
    16.7429  21.9595  26.1586  29.2842

          k = 0.4000-0.6000 0.4000 (   475 PWs)   bands (ev):

   -70.2811 -36.4111 -36.4111 -36.2529  14.1578  14.7787  14.7787  16.7485
    16.7485  24.7398  24.7398  26.9390

          k = 0.0000 0.0000 0.4000 (   470 PWs)   bands (ev):

   -70.3100 -36.3221 -36.2648 -36.2648  12.1418  15.2348  15.7269  15.7269
    16.3318  17.0911  35.9232  36.7743

          k = 0.0000-0.1000 0.5000 (   463 PWs)   bands (ev):

   -70.2899 -36.4051 -36.3056 -36.2751  13.1452  14.6454  15.6635  16.0891
    16.9994  17.8351  32.0249  34.6994

          k = 0.0000-0.2000 0.6000 (   468 PWs)   bands (ev):

   -70.2740 -36.4852 -36.3392 -36.2708  13.5191  14.4236  15.4990  16.2988
    17.7503  19.7032  27.7361  33.1923

          k = 0.0000 0.7000-0.3000 (   464 PWs)   bands (ev):

   -70.2677 -36.5160 -36.3517 -36.2681  13.4750  14.4910  15.4320  16.3163
    18.0721  21.5711  25.1225  32.6317

          k =-0.1000-0.1000 0.6000 (   467 PWs)   bands (ev):

   -70.2729 -36.4523 -36.3559 -36.2922  13.6485  14.1317  15.7412  16.4262
    17.3983  19.5443  30.2330  30.7539

          k =-0.1000 0.8000-0.3000 (   466 PWs)   bands (ev):

   -70.2623 -36.4866 -36.3920 -36.2916  13.6697  14.0126  15.5804  16.7298
    17.7719  22.1684  26.4867  29.6010

          k =-0.2000 0.8000-0.2000 (   469 PWs)   bands (ev):

   -70.2580 -36.4530 -36.4530 -36.2939  13.7932  13.7932  15.4743  17.4010
    17.4010  25.1033  25.1033  27.0458

          k = 0.6000-0.6000 0.4000 (   477 PWs)   bands (ev):

   -70.2848 -36.4565 -36.2973 -36.2973  14.4455  14.4455  14.7228  16.6878
    16.6878  21.9719  28.5832  28.5832

          k = 0.5000-0.5000 0.4000 (   474 PWs)   bands (ev):

   -70.2819 -36.4177 -36.3533 -36.3010  14.4167  14.4445  14.9442  16.6994
    16.7086  24.3114  25.7628  28.2222

          k = 0.0000 0.0000 0.6000 (   462 PWs)   bands (ev):

   -70.2718 -36.4053 -36.3487 -36.3487  13.5072  14.1129  16.3364  16.3364
    17.0621  19.1441  32.3921  32.3921

          k = 0.0000-0.1000 0.7000 (   466 PWs)   bands (ev):

   -70.2573 -36.4573 -36.3840 -36.3567  13.5173  13.6824  16.4613  16.6868
    17.6551  21.4238  28.7623  30.7212

          k = 0.0000 0.8000-0.2000 (   470 PWs)   bands (ev):

   -70.2519 -36.4842 -36.3974 -36.3532  13.4041  13.6047  16.4418  16.7957
    17.9906  23.8537  25.7185  30.0859

          k =-0.1000 0.9000-0.2000 (   468 PWs)   bands (ev):

   -70.2478 -36.4637 -36.4293 -36.3659  13.3654  13.3787  16.5556  17.3427
    17.7941  24.1253  27.4149  27.9937

          k = 0.0000 0.0000 0.8000 (   466 PWs)   bands (ev):

   -70.2439 -36.4410 -36.4196 -36.4196  13.2045  13.2231  17.3135  17.3135
    17.6665  23.6388  28.9183  28.9183

          k = 0.0000 0.9000-0.1000 (   478 PWs)   bands (ev):

   -70.2392 -36.4581 -36.4339 -36.4222  13.0530  13.0684  17.4444  17.5643
    17.9252  26.1386  26.7247  28.1971

          k = 0.0000 0.0000-1.0000 (   466 PWs)   bands (ev):

   -70.2339 -36.4469 -36.4469 -36.4469  12.8893  12.8893  17.9003  17.9003
    17.9003  27.4809  27.4809  27.4809

 ------ SPIN DOWN ----------


          k = 0.0000 0.0000 0.0000 (   459 PWs)   bands (ev):

   -67.8090 -33.6703 -33.6703 -33.6703   9.4802  17.1788  17.1788  17.1788
    19.4856  19.4856  42.0749  42.0749

          k = 0.0000-0.1000 0.1000 (   463 PWs)   bands (ev):

   -67.8019 -33.7114 -33.6834 -33.6702   9.8883  17.0515  17.1533  17.4109
    19.3491  19.4957  40.0234  41.5449

          k = 0.0000-0.2000 0.2000 (   475 PWs)   bands (ev):

   -67.7832 -33.8180 -33.7194 -33.6709  11.0341  16.7287  17.0222  18.0526
    19.1343  19.5350  35.9850  39.7551

          k = 0.0000-0.3000 0.3000 (   468 PWs)   bands (ev):

   -67.7593 -33.9471 -33.7621 -33.6704  12.6166  16.3491  16.9093  18.9309
    19.1072  19.6106  31.6334  37.7523

          k = 0.0000-0.4000 0.4000 (   474 PWs)   bands (ev):

   -67.7403 -34.0507 -33.7973 -33.6710  13.7999  16.0560  17.4911  19.2021
    19.6956  19.7334  27.8600  36.3299

          k = 0.0000 0.5000-0.5000 (   476 PWs)   bands (ev):

   -67.7330 -34.0897 -33.8103 -33.6713  14.0882  15.9471  18.2893  19.2458
    19.7342  20.0686  26.0787  35.8210

          k =-0.1000-0.1000 0.2000 (   471 PWs)   bands (ev):

   -67.7890 -33.7850 -33.6989 -33.6802  10.6675  16.8901  16.9753  17.8866
    19.1420  19.5495  37.8119  38.9564

          k =-0.1000-0.2000 0.3000 (   468 PWs)   bands (ev):

   -67.7675 -33.8951 -33.7407 -33.6846  12.0724  16.5428  16.7561  18.7130
    19.0012  19.6483  33.9402  36.7397

          k =-0.1000-0.3000 0.4000 (   471 PWs)   bands (ev):

   -67.7462 -34.0026 -33.7880 -33.6857  13.5687  16.1964  16.7922  19.0760
    19.5725  19.8839  29.7608  35.2225

          k =-0.1000 0.6000-0.5000 (   470 PWs)   bands (ev):

   -67.7328 -34.0675 -33.8177 -33.6858  14.2524  15.9981  17.4608  19.1975
    19.7623  20.7220  26.6255  34.3735

          k =-0.2000-0.2000 0.4000 (   465 PWs)   bands (ev):

   -67.7483 -33.9725 -33.7840 -33.7025  13.5124  16.3051  16.4331  18.9599
    19.5400  20.0371  32.0149  32.6964

          k =-0.2000 0.7000-0.5000 (   473 PWs)   bands (ev):

   -67.7330 -34.0226 -33.8402 -33.7100  14.6310  16.0496  16.5302  19.1012
    19.6649  21.4029  28.3443  31.2114

          k =-0.2000 0.6000-0.4000 (   474 PWs)   bands (ev):

   -67.7271 -34.0381 -33.8659 -33.7118  14.8752  15.9960  16.7908  19.2077
    19.6722  22.6199  26.1500  30.7625

          k =-0.3000 0.7000-0.4000 (   471 PWs)   bands (ev):

   -67.7247 -33.9962 -33.9143 -33.7216  15.3462  15.9752  16.3084  19.2759
    19.5478  23.7018  26.8811  28.1679

          k = 0.0000 0.0000 0.2000 (   470 PWs)   bands (ev):

   -67.7950 -33.7233 -33.6976 -33.6976  10.2859  17.1633  17.1633  17.4156
    19.0217  19.6518  39.2365  41.1418

          k = 0.0000-0.1000 0.3000 (   470 PWs)   bands (ev):

   -67.7764 -33.8174 -33.7335 -33.7037  11.4071  16.9346  17.0967  17.9940
    18.6354  19.7766  36.2192  39.0168

          k = 0.0000-0.2000 0.4000 (   468 PWs)   bands (ev):

   -67.7533 -33.9412 -33.7773 -33.7023  12.9420  16.5878  16.8820  18.6425
    18.8787  19.9064  31.9173  37.2696

          k = 0.0000-0.3000 0.5000 (   472 PWs)   bands (ev):

   -67.7347 -34.0409 -33.8127 -33.7006  14.1038  16.3152  17.0447  18.8821
    19.6966  20.3019  28.0410  36.1014

          k = 0.0000 0.6000-0.4000 (   472 PWs)   bands (ev):

   -67.7275 -34.0785 -33.8261 -33.6998  14.3853  16.2134  17.3871  18.9433
    20.0405  20.9052  26.1046  35.6847

          k =-0.1000-0.1000 0.4000 (   464 PWs)   bands (ev):

   -67.7559 -33.8997 -33.7741 -33.7252  12.7136  16.8325  16.9158  18.3342
    18.6410  19.9714  34.2113  35.0363

          k =-0.1000-0.2000 0.5000 (   470 PWs)   bands (ev):

   -67.7357 -33.9911 -33.8238 -33.7287  14.1068  16.4380  16.7803  18.5246
    19.3960  20.5067  30.2541  33.1871

          k =-0.1000 0.7000-0.4000 (   467 PWs)   bands (ev):

   -67.7230 -34.0477 -33.8556 -33.7279  14.7850  16.3929  16.7207  18.7534
    19.7666  21.8636  26.8374  32.3125

          k =-0.2000 0.2000 0.2000 (   477 PWs)   bands (ev):

   -67.7733 -33.8793 -33.7022 -33.7022  11.7561  16.5772  16.5772  18.7257
    19.3712  19.3712  35.9147  35.9147

          k =-0.2000 0.8000-0.4000 (   468 PWs)   bands (ev):

   -67.7214 -34.0135 -33.8906 -33.7383  15.1492  16.0385  16.6726  18.7528
    19.5283  22.2287  28.7530  29.4081

          k =-0.2000 0.7000-0.3000 (   472 PWs)   bands (ev):

   -67.7161 -34.0117 -33.9288 -33.7400  15.5206  16.1973  16.2722  18.9864
    19.4979  24.1380  26.2633  28.7344

          k =-0.3000 0.3000 0.2000 (   471 PWs)   bands (ev):

   -67.7533 -33.9681 -33.7548 -33.7051  13.2742  16.1877  16.3268  19.3111
    19.5714  19.8080  32.0099  34.3360

          k = 0.6000-0.6000 0.2000 (   474 PWs)   bands (ev):

   -67.7374 -34.0280 -33.8099 -33.7076  14.4102  15.9207  16.6060  19.3631
    19.7033  21.0587  28.1456  33.2783

          k = 0.6000-0.7000 0.3000 (   478 PWs)   bands (ev):

   -67.7392 -34.0046 -33.7973 -33.7349  14.6142  15.9503  16.0325  19.4260
    19.6699  21.2397  30.3053  30.9453

          k = 0.5000-0.5000 0.2000 (   472 PWs)   bands (ev):

   -67.7312 -34.0477 -33.8333 -33.7088  14.6308  15.8266  17.1018  19.4005
    19.7503  21.9877  26.1197  32.8993

          k = 0.5000-0.6000 0.3000 (   477 PWs)   bands (ev):

   -67.7303 -34.0015 -33.8570 -33.7443  15.1627  15.8074  16.3446  19.5101
    19.7256  23.0552  27.0472  29.8923

          k = 0.4000-0.6000 0.4000 (   475 PWs)   bands (ev):

   -67.7274 -33.9334 -33.9334 -33.7578  15.4295  16.0216  16.0216  19.6432
    19.6432  25.6101  25.6101  27.7208

          k = 0.0000 0.0000 0.4000 (   470 PWs)   bands (ev):

   -67.7590 -33.8358 -33.7706 -33.7706  12.4274  17.3122  17.3122  17.8151
    18.0471  20.0189  36.4695  37.2531

          k = 0.0000-0.1000 0.5000 (   463 PWs)   bands (ev):

   -67.7373 -33.9272 -33.8156 -33.7824  13.7750  16.8305  17.2352  17.9279
    18.7691  20.3515  32.7098  35.2080

          k = 0.0000-0.2000 0.6000 (   468 PWs)   bands (ev):

   -67.7200 -34.0153 -33.8524 -33.7779  14.7973  16.3435  17.0481  18.3266
    19.6028  21.4022  28.6151  33.6797

          k = 0.0000 0.7000-0.3000 (   464 PWs)   bands (ev):

   -67.7132 -34.0490 -33.8663 -33.7750  15.0581  16.3037  16.9717  18.3935
    19.9673  22.7765  26.2297  33.0962

          k =-0.1000-0.1000 0.6000 (   467 PWs)   bands (ev):

   -67.7188 -33.9788 -33.8711 -33.8012  14.8107  16.2340  17.3568  18.2134
    19.2908  21.3219  31.0211  31.3295

          k =-0.1000 0.8000-0.3000 (   466 PWs)   bands (ev):

   -67.7072 -34.0163 -33.9111 -33.8006  15.3807  15.8895  17.1472  18.6034
    19.6779  23.3852  27.3932  30.2297

          k =-0.2000 0.8000-0.2000 (   469 PWs)   bands (ev):

   -67.7024 -33.9787 -33.9787 -33.8029  15.6856  15.6856  16.9382  19.2918
    19.2918  26.0823  26.0823  27.7438

          k = 0.6000-0.6000 0.4000 (   477 PWs)   bands (ev):

   -67.7315 -33.9835 -33.8074 -33.8074  15.6009  15.7682  15.7682  19.6928
    19.6928  23.1103  29.2273  29.2273

          k = 0.5000-0.5000 0.4000 (   474 PWs)   bands (ev):

   -67.7285 -33.9409 -33.8693 -33.8114  15.6225  15.7147  16.0584  19.7144
    19.7765  25.1462  26.6094  28.8532

          k = 0.0000 0.0000 0.6000 (   462 PWs)   bands (ev):

   -67.7176 -33.9276 -33.8631 -33.8631  14.6524  16.3750  17.9465  17.9465
    18.8507  21.0578  32.8902  32.8902

          k = 0.0000-0.1000 0.7000 (   466 PWs)   bands (ev):

   -67.7019 -33.9839 -33.9019 -33.8723  15.1636  15.7629  18.0982  18.3910
    19.4980  22.6881  29.4403  31.1709

          k = 0.0000 0.8000-0.2000 (   470 PWs)   bands (ev):

   -67.6959 -34.0130 -33.9167 -33.8685  15.3357  15.5010  18.0813  18.5272
    19.8777  24.7914  26.5742  30.5006

          k =-0.1000 0.9000-0.2000 (   468 PWs)   bands (ev):

   -67.6915 -33.9903 -33.9519 -33.8823  15.2610  15.3720  18.1818  19.1214
    19.6571  25.0148  28.1066  28.5163

          k = 0.0000 0.0000 0.8000 (   466 PWs)   bands (ev):

   -67.6872 -33.9654 -33.9413 -33.9413  15.0662  15.2693  19.0551  19.0551
    19.5191  24.4695  29.2833  29.2833

          k = 0.0000 0.9000-0.1000 (   478 PWs)   bands (ev):

   -67.6820 -33.9837 -33.9568 -33.9440  15.0212  15.0382  19.2289  19.3569
    19.8058  26.6979  27.2072  28.5046

          k = 0.0000 0.0000-1.0000 (   466 PWs)   bands (ev):

   -67.6761 -33.9714 -33.9714 -33.9714  14.8621  14.8621  19.7784  19.7784
    19.7784  27.7063  27.7063  27.7063

     the Fermi energy is    17.7179 ev

!    total energy              =    -329.26294726 Ry
     Harris-Foulkes estimate   =    -329.26294725 Ry
     estimated scf accuracy    <          4.4E-10 Ry

     total all-electron energy =     -2545.559483 Ry

     The total energy is the sum of the following terms:

     one-electron contribution =    -112.01210648 Ry
     hartree contribution      =      66.23026594 Ry
     xc contribution           =     -34.80536221 Ry
     ewald contribution        =    -172.52662280 Ry
     one-center paw contrib.   =     -76.15050147 Ry
     smearing contrib. (-TS)   =       0.00137976 Ry

     total magnetization       =     2.10 Bohr mag/cell
     absolute magnetization    =     2.22 Bohr mag/cell

     convergence has been achieved in  14 iterations

     Forces acting on atoms (Ry/au):


     negative rho (up, down):  0.000E+00 1.530E-04
     atom    1 type  1   force =     0.00000000    0.00000000    0.00000000

     Total force =     0.000000     Total SCF correction =     0.000000


     entering subroutine stress ...


     negative rho (up, down):  0.000E+00 1.530E-04
          total   stress  (Ry/bohr**3)                   (kbar)     P= -143.47
  -0.00097529  -0.00000000   0.00000000       -143.47     -0.00      0.00
  -0.00000000  -0.00097529  -0.00000000         -0.00   -143.47     -0.00
   0.00000000  -0.00000000  -0.00097529          0.00     -0.00   -143.47


     Writing output data file Fe_bcc.save

     init_run     :      1.82s CPU      1.87s WALL (       1 calls)
     electrons    :     32.83s CPU     33.29s WALL (       1 calls)
     forces       :      0.14s CPU      0.15s WALL (       1 calls)
     stress       :      0.52s CPU      0.52s WALL (       1 calls)

     Called by init_run:
     wfcinit      :      0.77s CPU      0.77s WALL (       1 calls)
     potinit      :      0.53s CPU      0.56s WALL (       1 calls)

     Called by electrons:
     c_bands      :     21.48s CPU     21.65s WALL (      14 calls)
     sum_band     :      4.15s CPU      4.23s WALL (      14 calls)
     v_of_rho     :      0.33s CPU      0.34s WALL (      15 calls)
     newd         :      0.23s CPU      0.24s WALL (      15 calls)
     mix_rho      :      0.04s CPU      0.05s WALL (      14 calls)

     Called by c_bands:
     init_us_2    :      0.49s CPU      0.50s WALL (    2914 calls)
     cegterg      :     20.51s CPU     20.65s WALL (    1316 calls)

     Called by *egterg:
     h_psi        :     17.76s CPU     17.98s WALL (    3973 calls)
     s_psi        :      0.46s CPU      0.38s WALL (    3973 calls)
     g_psi        :      0.10s CPU      0.10s WALL (    2563 calls)
     cdiaghg      :      1.06s CPU      1.07s WALL (    3879 calls)

     Called by h_psi:
     add_vuspsi   :      0.48s CPU      0.42s WALL (    3973 calls)

     General routines
     calbec       :      0.53s CPU      0.54s WALL (    5477 calls)
     fft          :      0.17s CPU      0.17s WALL (     499 calls)
     ffts         :      0.02s CPU      0.02s WALL (      58 calls)
     fftw         :     18.26s CPU     18.53s WALL (   89730 calls)
     interpolate  :      0.04s CPU      0.05s WALL (      58 calls)
     davcio       :      0.00s CPU      0.00s WALL (      94 calls)


     PAW routines
     PAW_pot      :      7.11s CPU      7.31s WALL (      15 calls)
     PAW_symme    :      0.02s CPU      0.02s WALL (      29 calls)

     PWSCF        :    35.82s CPU        36.40s WALL


   This run was terminated on:  10:28:21  11May2015            

=------------------------------------------------------------------------------=
   JOB DONE.
=------------------------------------------------------------------------------=
