
     Program PWSCF v.5.1.2 starts on 11May2015 at 10:53:43 

     This program is part of the open-source Quantum ESPRESSO suite
     for quantum simulation of materials; please cite
         "P. Giannozzi et al., J. Phys.:Condens. Matter 21 395502 (2009);
          URL http://www.quantum-espresso.org", 
     in publications or presentations arising from this work. More details at
     http://www.quantum-espresso.org/quote

     Serial version
     Reading input from Fe_bcc_5.45_13.pw.in

     Current dimensions of program PWSCF are:
     Max number of different atomic species (ntypx) = 10
     Max number of k-points (npk) =  40000
     Max angular momentum in pseudopotentials (lmaxx) =  3
               file Fe.pbe-spn-kjpaw_psl.0.2.1.UPF: wavefunction(s)  3D renormalized

     G-vector sticks info
     --------------------
     sticks:   dense  smooth     PW     G-vecs:    dense   smooth      PW
     Sum         411     337    103                 5425     3925     683

     Generating pointlists ...
     new r_m :   0.3572 (alat units)  1.9469 (a.u.) for type    1


     bravais-lattice index     =            3
     lattice parameter (alat)  =       5.4500  a.u.
     unit-cell volume          =      80.9393 (a.u.)^3
     number of atoms/cell      =            1
     number of atomic types    =            1
     number of electrons       =        16.00
     number of Kohn-Sham states=           12
     kinetic-energy cutoff     =      50.0000  Ry
     charge density cutoff     =     250.0000  Ry
     convergence threshold     =      1.0E-08
     mixing beta               =       0.7000
     number of iterations used =            8  plain     mixing
     Exchange-correlation      =  SLA  PW   PBX  PBC ( 1  4  3  4 0 0)

     celldm(1)=   5.450000  celldm(2)=   0.000000  celldm(3)=   0.000000
     celldm(4)=   0.000000  celldm(5)=   0.000000  celldm(6)=   0.000000

     crystal axes: (cart. coord. in units of alat)
               a(1) = (   0.500000   0.500000   0.500000 )  
               a(2) = (  -0.500000   0.500000   0.500000 )  
               a(3) = (  -0.500000  -0.500000   0.500000 )  

     reciprocal axes: (cart. coord. in units 2 pi/alat)
               b(1) = (  1.000000  0.000000  1.000000 )  
               b(2) = ( -1.000000  1.000000  0.000000 )  
               b(3) = (  0.000000 -1.000000  1.000000 )  


     PseudoPot. # 1 for Fe read from file:
     ./Fe.pbe-spn-kjpaw_psl.0.2.1.UPF
     MD5 check sum: a0a08122d52b112de96d1da1d7dd020f
     Pseudo is Projector augmented-wave + core cor, Zval = 16.0
     Generated using "atomic" code by A. Dal Corso  v.5.0.2 svn rev. 9415
     Shape of augmentation charge: PSQ
     Using radial grid of 1191 points,  6 beta functions with: 
                l(1) =   0
                l(2) =   0
                l(3) =   1
                l(4) =   1
                l(5) =   2
                l(6) =   2
     Q(r) pseudized with 0 coefficients 


     atomic species   valence    mass     pseudopotential
        Fe            16.00    55.85000     Fe( 1.00)

     Starting magnetic structure 
     atomic species   magnetization
        Fe           0.700

     48 Sym. Ops., with inversion, found



   Cartesian axes

     site n.     atom                  positions (alat units)
         1           Fe  tau(   1) = (   0.0000000   0.0000000   0.0000000  )

     number of k points=   168  Marzari-Vanderbilt smearing, width (Ry)=  0.0250

     Number of k-points >= 100: set verbosity='high' to print them.

     Dense  grid:     5425 G-vectors     FFT dimensions: (  24,  24,  24)

     Smooth grid:     3925 G-vectors     FFT dimensions: (  24,  24,  24)

     Largest allocated arrays     est. size (Mb)     dimensions
        Kohn-Sham Wavefunctions         0.09 Mb     (     493,   12)
        NL pseudopotentials             0.14 Mb     (     493,   18)
        Each V/rho on FFT grid          0.42 Mb     (   13824,   2)
        Each G-vector array             0.04 Mb     (    5425)
        G-vector shells                 0.00 Mb     (      88)
     Largest temporary arrays     est. size (Mb)     dimensions
        Auxiliary wavefunctions         0.36 Mb     (     493,   48)
        Each subspace H/S matrix        0.04 Mb     (      48,   48)
        Each <psi_i|beta_j> matrix      0.00 Mb     (      18,   12)
        Arrays for rho mixing           1.69 Mb     (   13824,    8)

     Check: negative/imaginary core charge=   -0.000421    0.000000

     Initial potential from superposition of free atoms

     starting charge   15.99956, renormalised to   16.00000
     Starting wfc are   13 randomized atomic wfcs

     total cpu time spent up to now is        2.7 secs

     Self-consistent Calculation

     iteration #  1     ecut=    50.00 Ry     beta=0.70
     Davidson diagonalization with overlap
     ethr =  1.00E-02,  avg # of iterations =  3.2

     negative rho (up, down):  0.000E+00 3.587E-04

     Magnetic moment per site:
     atom:    1    charge:   14.3028    magn:    5.7174    constr:    0.0000

     total cpu time spent up to now is        7.1 secs

     total energy              =    -328.98806010 Ry
     Harris-Foulkes estimate   =    -328.06904694 Ry
     estimated scf accuracy    <       1.50173232 Ry

     total magnetization       =     3.87 Bohr mag/cell
     absolute magnetization    =     3.90 Bohr mag/cell

     iteration #  2     ecut=    50.00 Ry     beta=0.70
     Davidson diagonalization with overlap
     ethr =  9.39E-03,  avg # of iterations =  1.2

     negative rho (up, down):  0.000E+00 3.777E-04

     Magnetic moment per site:
     atom:    1    charge:   14.5352    magn:    3.5311    constr:    0.0000

     total cpu time spent up to now is       10.5 secs

     total energy              =    -329.15879764 Ry
     Harris-Foulkes estimate   =    -329.10449115 Ry
     estimated scf accuracy    <       0.35657924 Ry

     total magnetization       =     3.05 Bohr mag/cell
     absolute magnetization    =     3.19 Bohr mag/cell

     iteration #  3     ecut=    50.00 Ry     beta=0.70
     Davidson diagonalization with overlap
     ethr =  2.23E-03,  avg # of iterations =  2.1

     negative rho (up, down):  0.000E+00 3.914E-04

     Magnetic moment per site:
     atom:    1    charge:   14.4182    magn:    2.5233    constr:    0.0000

     total cpu time spent up to now is       14.4 secs

     total energy              =    -329.17758642 Ry
     Harris-Foulkes estimate   =    -329.34813785 Ry
     estimated scf accuracy    <       0.48639850 Ry

     total magnetization       =     2.59 Bohr mag/cell
     absolute magnetization    =     2.73 Bohr mag/cell

     iteration #  4     ecut=    50.00 Ry     beta=0.70
     Davidson diagonalization with overlap
     ethr =  2.23E-03,  avg # of iterations =  2.0

     negative rho (up, down):  0.000E+00 2.488E-04

     Magnetic moment per site:
     atom:    1    charge:   14.4495    magn:    2.3663    constr:    0.0000

     total cpu time spent up to now is       18.1 secs

     total energy              =    -329.25748289 Ry
     Harris-Foulkes estimate   =    -329.25672823 Ry
     estimated scf accuracy    <       0.00162455 Ry

     total magnetization       =     2.37 Bohr mag/cell
     absolute magnetization    =     2.55 Bohr mag/cell

     iteration #  5     ecut=    50.00 Ry     beta=0.70
     Davidson diagonalization with overlap
     ethr =  1.02E-05,  avg # of iterations =  3.4

     negative rho (up, down):  0.000E+00 2.438E-04

     Magnetic moment per site:
     atom:    1    charge:   14.4458    magn:    2.3399    constr:    0.0000

     total cpu time spent up to now is       23.0 secs

     total energy              =    -329.26055874 Ry
     Harris-Foulkes estimate   =    -329.26029488 Ry
     estimated scf accuracy    <       0.00055187 Ry

     total magnetization       =     2.25 Bohr mag/cell
     absolute magnetization    =     2.40 Bohr mag/cell

     iteration #  6     ecut=    50.00 Ry     beta=0.70
     Davidson diagonalization with overlap
     ethr =  3.45E-06,  avg # of iterations =  1.0

     negative rho (up, down):  0.000E+00 1.172E-04

     Magnetic moment per site:
     atom:    1    charge:   14.4329    magn:    2.0486    constr:    0.0000

     total cpu time spent up to now is       26.1 secs

     total energy              =    -329.25820322 Ry
     Harris-Foulkes estimate   =    -329.26062382 Ry
     estimated scf accuracy    <       0.00036905 Ry

     total magnetization       =     2.22 Bohr mag/cell
     absolute magnetization    =     2.37 Bohr mag/cell

     iteration #  7     ecut=    50.00 Ry     beta=0.70
     Davidson diagonalization with overlap
     ethr =  2.31E-06,  avg # of iterations =  2.7

     negative rho (up, down):  0.000E+00 1.871E-04

     Magnetic moment per site:
     atom:    1    charge:   14.4382    magn:    2.2156    constr:    0.0000

     total cpu time spent up to now is       30.7 secs

     total energy              =    -329.26086992 Ry
     Harris-Foulkes estimate   =    -329.26006847 Ry
     estimated scf accuracy    <       0.00052348 Ry

     total magnetization       =     2.08 Bohr mag/cell
     absolute magnetization    =     2.20 Bohr mag/cell

     iteration #  8     ecut=    50.00 Ry     beta=0.70
     Davidson diagonalization with overlap
     ethr =  2.31E-06,  avg # of iterations =  2.0

     negative rho (up, down):  0.000E+00 1.819E-04

     Magnetic moment per site:
     atom:    1    charge:   14.4392    magn:    2.2011    constr:    0.0000

     total cpu time spent up to now is       34.5 secs

     total energy              =    -329.26122827 Ry
     Harris-Foulkes estimate   =    -329.26120622 Ry
     estimated scf accuracy    <       0.00002571 Ry

     total magnetization       =     2.14 Bohr mag/cell
     absolute magnetization    =     2.28 Bohr mag/cell

     iteration #  9     ecut=    50.00 Ry     beta=0.70
     Davidson diagonalization with overlap
     ethr =  1.61E-07,  avg # of iterations =  2.2

     negative rho (up, down):  0.000E+00 1.830E-04

     Magnetic moment per site:
     atom:    1    charge:   14.4393    magn:    2.1988    constr:    0.0000

     total cpu time spent up to now is       38.2 secs

     total energy              =    -329.26123977 Ry
     Harris-Foulkes estimate   =    -329.26123733 Ry
     estimated scf accuracy    <       0.00000732 Ry

     total magnetization       =     2.14 Bohr mag/cell
     absolute magnetization    =     2.27 Bohr mag/cell

     iteration # 10     ecut=    50.00 Ry     beta=0.70
     Davidson diagonalization with overlap
     ethr =  4.57E-08,  avg # of iterations =  1.2

     negative rho (up, down):  0.000E+00 1.776E-04

     Magnetic moment per site:
     atom:    1    charge:   14.4388    magn:    2.1832    constr:    0.0000

     total cpu time spent up to now is       41.5 secs

     total energy              =    -329.26124147 Ry
     Harris-Foulkes estimate   =    -329.26124052 Ry
     estimated scf accuracy    <       0.00000487 Ry

     total magnetization       =     2.13 Bohr mag/cell
     absolute magnetization    =     2.27 Bohr mag/cell

     iteration # 11     ecut=    50.00 Ry     beta=0.70
     Davidson diagonalization with overlap
     ethr =  3.04E-08,  avg # of iterations =  1.7

     negative rho (up, down):  0.000E+00 1.778E-04

     Magnetic moment per site:
     atom:    1    charge:   14.4388    magn:    2.1828    constr:    0.0000

     total cpu time spent up to now is       44.9 secs

     total energy              =    -329.26124713 Ry
     Harris-Foulkes estimate   =    -329.26124607 Ry
     estimated scf accuracy    <       0.00000004 Ry

     total magnetization       =     2.13 Bohr mag/cell
     absolute magnetization    =     2.26 Bohr mag/cell

     iteration # 12     ecut=    50.00 Ry     beta=0.70
     Davidson diagonalization with overlap
     ethr =  2.47E-10,  avg # of iterations =  3.0

     negative rho (up, down):  0.000E+00 1.770E-04

     Magnetic moment per site:
     atom:    1    charge:   14.4387    magn:    2.1804    constr:    0.0000

     total cpu time spent up to now is       49.3 secs

     total energy              =    -329.26124717 Ry
     Harris-Foulkes estimate   =    -329.26124721 Ry
     estimated scf accuracy    <       0.00000006 Ry

     total magnetization       =     2.13 Bohr mag/cell
     absolute magnetization    =     2.26 Bohr mag/cell

     iteration # 13     ecut=    50.00 Ry     beta=0.70
     Davidson diagonalization with overlap
     ethr =  2.47E-10,  avg # of iterations =  2.0

     negative rho (up, down):  0.000E+00 1.771E-04

     Magnetic moment per site:
     atom:    1    charge:   14.4387    magn:    2.1806    constr:    0.0000

     total cpu time spent up to now is       53.3 secs

     End of self-consistent calculation

     Number of k-points >= 100: set verbosity='high' to print the bands.

     the Fermi energy is    17.0873 ev

!    total energy              =    -329.26124750 Ry
     Harris-Foulkes estimate   =    -329.26124734 Ry
     estimated scf accuracy    <          4.8E-09 Ry

     total all-electron energy =     -2545.557783 Ry

     The total energy is the sum of the following terms:

     one-electron contribution =    -114.54788365 Ry
     hartree contribution      =      67.16843765 Ry
     xc contribution           =     -34.78980227 Ry
     ewald contribution        =    -170.94380975 Ry
     one-center paw contrib.   =     -76.14957015 Ry
     smearing contrib. (-TS)   =       0.00138067 Ry

     total magnetization       =     2.13 Bohr mag/cell
     absolute magnetization    =     2.26 Bohr mag/cell

     convergence has been achieved in  13 iterations

     Forces acting on atoms (Ry/au):


     negative rho (up, down):  0.000E+00 1.771E-04
     atom    1 type  1   force =     0.00000000    0.00000000    0.00000000

     Total force =     0.000000     Total SCF correction =     0.000000


     entering subroutine stress ...


     negative rho (up, down):  0.000E+00 1.771E-04
          total   stress  (Ry/bohr**3)                   (kbar)     P= -187.12
  -0.00127204   0.00000000  -0.00000000       -187.12      0.00     -0.00
   0.00000000  -0.00127204   0.00000000          0.00   -187.12      0.00
  -0.00000000   0.00000000  -0.00127204         -0.00      0.00   -187.12


     Writing output data file Fe_bcc.save

     init_run     :      2.29s CPU      2.33s WALL (       1 calls)
     electrons    :     50.38s CPU     50.59s WALL (       1 calls)
     forces       :      0.20s CPU      0.20s WALL (       1 calls)
     stress       :      0.78s CPU      0.79s WALL (       1 calls)

     Called by init_run:
     wfcinit      :      1.28s CPU      1.28s WALL (       1 calls)
     potinit      :      0.50s CPU      0.52s WALL (       1 calls)

     Called by electrons:
     c_bands      :     37.52s CPU     37.50s WALL (      13 calls)
     sum_band     :      6.36s CPU      6.44s WALL (      13 calls)
     v_of_rho     :      0.30s CPU      0.31s WALL (      14 calls)
     newd         :      0.20s CPU      0.21s WALL (      14 calls)
     mix_rho      :      0.04s CPU      0.04s WALL (      13 calls)

     Called by c_bands:
     init_us_2    :      0.83s CPU      0.83s WALL (    4872 calls)
     cegterg      :     35.92s CPU     35.86s WALL (    2184 calls)

     Called by *egterg:
     h_psi        :     30.64s CPU     30.84s WALL (    7013 calls)
     s_psi        :      0.82s CPU      0.67s WALL (    7013 calls)
     g_psi        :      0.18s CPU      0.19s WALL (    4661 calls)
     cdiaghg      :      2.05s CPU      2.06s WALL (    6845 calls)

     Called by h_psi:
     add_vuspsi   :      0.82s CPU      0.72s WALL (    7013 calls)

     General routines
     calbec       :      0.89s CPU      0.91s WALL (    9533 calls)
     fft          :      0.15s CPU      0.16s WALL (     468 calls)
     ffts         :      0.02s CPU      0.02s WALL (      54 calls)
     fftw         :     31.10s CPU     31.35s WALL (  158764 calls)
     interpolate  :      0.04s CPU      0.04s WALL (      54 calls)
     davcio       :      0.00s CPU      0.01s WALL (     168 calls)


     PAW routines
     PAW_pot      :      6.43s CPU      6.57s WALL (      14 calls)
     PAW_symme    :      0.02s CPU      0.02s WALL (      27 calls)

     PWSCF        :    54.28s CPU        54.65s WALL


   This run was terminated on:  10:54:38  11May2015            

=------------------------------------------------------------------------------=
   JOB DONE.
=------------------------------------------------------------------------------=
