
     Program PWSCF v.5.1.2 starts on 11May2015 at 10:16:28 

     This program is part of the open-source Quantum ESPRESSO suite
     for quantum simulation of materials; please cite
         "P. Giannozzi et al., J. Phys.:Condens. Matter 21 395502 (2009);
          URL http://www.quantum-espresso.org", 
     in publications or presentations arising from this work. More details at
     http://www.quantum-espresso.org/quote

     Serial version
     Reading input from Fe_bcc_5.38_8.pw.in

     Current dimensions of program PWSCF are:
     Max number of different atomic species (ntypx) = 10
     Max number of k-points (npk) =  40000
     Max angular momentum in pseudopotentials (lmaxx) =  3
               file Fe.pbe-spn-kjpaw_psl.0.2.1.UPF: wavefunction(s)  3D renormalized

     G-vector sticks info
     --------------------
     sticks:   dense  smooth     PW     G-vecs:    dense   smooth      PW
     Sum         411     333    103                 5233     3781     683

     Generating pointlists ...
     new r_m :   0.3572 (alat units)  1.9219 (a.u.) for type    1


     bravais-lattice index     =            3
     lattice parameter (alat)  =       5.3800  a.u.
     unit-cell volume          =      77.8604 (a.u.)^3
     number of atoms/cell      =            1
     number of atomic types    =            1
     number of electrons       =        16.00
     number of Kohn-Sham states=           12
     kinetic-energy cutoff     =      50.0000  Ry
     charge density cutoff     =     250.0000  Ry
     convergence threshold     =      1.0E-08
     mixing beta               =       0.7000
     number of iterations used =            8  plain     mixing
     Exchange-correlation      =  SLA  PW   PBX  PBC ( 1  4  3  4 0 0)

     celldm(1)=   5.380000  celldm(2)=   0.000000  celldm(3)=   0.000000
     celldm(4)=   0.000000  celldm(5)=   0.000000  celldm(6)=   0.000000

     crystal axes: (cart. coord. in units of alat)
               a(1) = (   0.500000   0.500000   0.500000 )  
               a(2) = (  -0.500000   0.500000   0.500000 )  
               a(3) = (  -0.500000  -0.500000   0.500000 )  

     reciprocal axes: (cart. coord. in units 2 pi/alat)
               b(1) = (  1.000000  0.000000  1.000000 )  
               b(2) = ( -1.000000  1.000000  0.000000 )  
               b(3) = (  0.000000 -1.000000  1.000000 )  


     PseudoPot. # 1 for Fe read from file:
     ./Fe.pbe-spn-kjpaw_psl.0.2.1.UPF
     MD5 check sum: a0a08122d52b112de96d1da1d7dd020f
     Pseudo is Projector augmented-wave + core cor, Zval = 16.0
     Generated using "atomic" code by A. Dal Corso  v.5.0.2 svn rev. 9415
     Shape of augmentation charge: PSQ
     Using radial grid of 1191 points,  6 beta functions with: 
                l(1) =   0
                l(2) =   0
                l(3) =   1
                l(4) =   1
                l(5) =   2
                l(6) =   2
     Q(r) pseudized with 0 coefficients 


     atomic species   valence    mass     pseudopotential
        Fe            16.00    55.85000     Fe( 1.00)

     Starting magnetic structure 
     atomic species   magnetization
        Fe           0.700

     48 Sym. Ops., with inversion, found



   Cartesian axes

     site n.     atom                  positions (alat units)
         1           Fe  tau(   1) = (   0.0000000   0.0000000   0.0000000  )

     number of k points=    58  Marzari-Vanderbilt smearing, width (Ry)=  0.0250
                       cart. coord. in units 2pi/alat
        k(    1) = (   0.0000000   0.0000000   0.0000000), wk =   0.0019531
        k(    2) = (   0.0000000  -0.1250000   0.1250000), wk =   0.0234375
        k(    3) = (   0.0000000  -0.2500000   0.2500000), wk =   0.0234375
        k(    4) = (   0.0000000  -0.3750000   0.3750000), wk =   0.0234375
        k(    5) = (   0.0000000   0.5000000  -0.5000000), wk =   0.0117188
        k(    6) = (  -0.1250000  -0.1250000   0.2500000), wk =   0.0468750
        k(    7) = (  -0.1250000  -0.2500000   0.3750000), wk =   0.0937500
        k(    8) = (  -0.1250000   0.6250000  -0.5000000), wk =   0.0937500
        k(    9) = (  -0.2500000   0.7500000  -0.5000000), wk =   0.0468750
        k(   10) = (  -0.2500000   0.6250000  -0.3750000), wk =   0.0468750
        k(   11) = (   0.0000000   0.0000000   0.2500000), wk =   0.0117188
        k(   12) = (   0.0000000  -0.1250000   0.3750000), wk =   0.0468750
        k(   13) = (   0.0000000  -0.2500000   0.5000000), wk =   0.0468750
        k(   14) = (   0.0000000   0.6250000  -0.3750000), wk =   0.0234375
        k(   15) = (  -0.1250000  -0.1250000   0.5000000), wk =   0.0468750
        k(   16) = (  -0.1250000   0.7500000  -0.3750000), wk =   0.0937500
        k(   17) = (  -0.2500000   0.2500000   0.2500000), wk =   0.0156250
        k(   18) = (  -0.2500000   0.7500000  -0.2500000), wk =   0.0156250
        k(   19) = (   0.6250000  -0.6250000   0.2500000), wk =   0.0468750
        k(   20) = (   0.5000000  -0.5000000   0.2500000), wk =   0.0234375
        k(   21) = (   0.5000000  -0.6250000   0.3750000), wk =   0.0468750
        k(   22) = (   0.0000000   0.0000000   0.5000000), wk =   0.0117188
        k(   23) = (   0.0000000  -0.1250000   0.6250000), wk =   0.0468750
        k(   24) = (   0.0000000   0.7500000  -0.2500000), wk =   0.0234375
        k(   25) = (  -0.1250000   0.8750000  -0.2500000), wk =   0.0468750
        k(   26) = (   0.5000000  -0.5000000   0.5000000), wk =   0.0039062
        k(   27) = (   0.0000000   0.0000000   0.7500000), wk =   0.0117188
        k(   28) = (   0.0000000   0.8750000  -0.1250000), wk =   0.0234375
        k(   29) = (   0.0000000   0.0000000  -1.0000000), wk =   0.0019531
        k(   30) = (   0.0000000   0.0000000   0.0000000), wk =   0.0019531
        k(   31) = (   0.0000000  -0.1250000   0.1250000), wk =   0.0234375
        k(   32) = (   0.0000000  -0.2500000   0.2500000), wk =   0.0234375
        k(   33) = (   0.0000000  -0.3750000   0.3750000), wk =   0.0234375
        k(   34) = (   0.0000000   0.5000000  -0.5000000), wk =   0.0117188
        k(   35) = (  -0.1250000  -0.1250000   0.2500000), wk =   0.0468750
        k(   36) = (  -0.1250000  -0.2500000   0.3750000), wk =   0.0937500
        k(   37) = (  -0.1250000   0.6250000  -0.5000000), wk =   0.0937500
        k(   38) = (  -0.2500000   0.7500000  -0.5000000), wk =   0.0468750
        k(   39) = (  -0.2500000   0.6250000  -0.3750000), wk =   0.0468750
        k(   40) = (   0.0000000   0.0000000   0.2500000), wk =   0.0117188
        k(   41) = (   0.0000000  -0.1250000   0.3750000), wk =   0.0468750
        k(   42) = (   0.0000000  -0.2500000   0.5000000), wk =   0.0468750
        k(   43) = (   0.0000000   0.6250000  -0.3750000), wk =   0.0234375
        k(   44) = (  -0.1250000  -0.1250000   0.5000000), wk =   0.0468750
        k(   45) = (  -0.1250000   0.7500000  -0.3750000), wk =   0.0937500
        k(   46) = (  -0.2500000   0.2500000   0.2500000), wk =   0.0156250
        k(   47) = (  -0.2500000   0.7500000  -0.2500000), wk =   0.0156250
        k(   48) = (   0.6250000  -0.6250000   0.2500000), wk =   0.0468750
        k(   49) = (   0.5000000  -0.5000000   0.2500000), wk =   0.0234375
        k(   50) = (   0.5000000  -0.6250000   0.3750000), wk =   0.0468750
        k(   51) = (   0.0000000   0.0000000   0.5000000), wk =   0.0117188
        k(   52) = (   0.0000000  -0.1250000   0.6250000), wk =   0.0468750
        k(   53) = (   0.0000000   0.7500000  -0.2500000), wk =   0.0234375
        k(   54) = (  -0.1250000   0.8750000  -0.2500000), wk =   0.0468750
        k(   55) = (   0.5000000  -0.5000000   0.5000000), wk =   0.0039062
        k(   56) = (   0.0000000   0.0000000   0.7500000), wk =   0.0117188
        k(   57) = (   0.0000000   0.8750000  -0.1250000), wk =   0.0234375
        k(   58) = (   0.0000000   0.0000000  -1.0000000), wk =   0.0019531

     Dense  grid:     5233 G-vectors     FFT dimensions: (  24,  24,  24)

     Smooth grid:     3781 G-vectors     FFT dimensions: (  24,  24,  24)

     Largest allocated arrays     est. size (Mb)     dimensions
        Kohn-Sham Wavefunctions         0.09 Mb     (     476,   12)
        NL pseudopotentials             0.13 Mb     (     476,   18)
        Each V/rho on FFT grid          0.42 Mb     (   13824,   2)
        Each G-vector array             0.04 Mb     (    5233)
        G-vector shells                 0.00 Mb     (      86)
     Largest temporary arrays     est. size (Mb)     dimensions
        Auxiliary wavefunctions         0.35 Mb     (     476,   48)
        Each subspace H/S matrix        0.04 Mb     (      48,   48)
        Each <psi_i|beta_j> matrix      0.00 Mb     (      18,   12)
        Arrays for rho mixing           1.69 Mb     (   13824,    8)

     Check: negative/imaginary core charge=   -0.000425    0.000000

     Initial potential from superposition of free atoms

     starting charge   15.99956, renormalised to   16.00000
     Starting wfc are   13 randomized atomic wfcs

     total cpu time spent up to now is        1.9 secs

     Self-consistent Calculation

     iteration #  1     ecut=    50.00 Ry     beta=0.70
     Davidson diagonalization with overlap
     ethr =  1.00E-02,  avg # of iterations =  3.3

     negative rho (up, down):  0.000E+00 3.366E-04

     Magnetic moment per site:
     atom:    1    charge:   14.2752    magn:    5.7079    constr:    0.0000

     total cpu time spent up to now is        3.8 secs

     total energy              =    -328.97411339 Ry
     Harris-Foulkes estimate   =    -328.05464971 Ry
     estimated scf accuracy    <       1.50594257 Ry

     total magnetization       =     3.89 Bohr mag/cell
     absolute magnetization    =     3.91 Bohr mag/cell

     iteration #  2     ecut=    50.00 Ry     beta=0.70
     Davidson diagonalization with overlap
     ethr =  9.41E-03,  avg # of iterations =  1.2

     negative rho (up, down):  0.000E+00 3.516E-04

     Magnetic moment per site:
     atom:    1    charge:   14.5070    magn:    3.4861    constr:    0.0000

     total cpu time spent up to now is        5.6 secs

     total energy              =    -329.15797213 Ry
     Harris-Foulkes estimate   =    -329.09602430 Ry
     estimated scf accuracy    <       0.35300470 Ry

     total magnetization       =     3.05 Bohr mag/cell
     absolute magnetization    =     3.17 Bohr mag/cell

     iteration #  3     ecut=    50.00 Ry     beta=0.70
     Davidson diagonalization with overlap
     ethr =  2.21E-03,  avg # of iterations =  2.0

     negative rho (up, down):  0.000E+00 3.554E-04

     Magnetic moment per site:
     atom:    1    charge:   14.3902    magn:    2.4660    constr:    0.0000

     total cpu time spent up to now is        7.3 secs

     total energy              =    -329.18105028 Ry
     Harris-Foulkes estimate   =    -329.34463604 Ry
     estimated scf accuracy    <       0.47125227 Ry

     total magnetization       =     2.52 Bohr mag/cell
     absolute magnetization    =     2.65 Bohr mag/cell

     iteration #  4     ecut=    50.00 Ry     beta=0.70
     Davidson diagonalization with overlap
     ethr =  2.21E-03,  avg # of iterations =  2.1

     negative rho (up, down):  0.000E+00 2.084E-04

     Magnetic moment per site:
     atom:    1    charge:   14.4135    magn:    2.2703    constr:    0.0000

     total cpu time spent up to now is        9.1 secs

     total energy              =    -329.25820225 Ry
     Harris-Foulkes estimate   =    -329.25745295 Ry
     estimated scf accuracy    <       0.00202195 Ry

     total magnetization       =     2.29 Bohr mag/cell
     absolute magnetization    =     2.46 Bohr mag/cell

     iteration #  5     ecut=    50.00 Ry     beta=0.70
     Davidson diagonalization with overlap
     ethr =  1.26E-05,  avg # of iterations =  3.3

     negative rho (up, down):  0.000E+00 1.872E-04

     Magnetic moment per site:
     atom:    1    charge:   14.4082    magn:    2.2369    constr:    0.0000

     total cpu time spent up to now is       11.9 secs

     total energy              =    -329.26120950 Ry
     Harris-Foulkes estimate   =    -329.26110132 Ry
     estimated scf accuracy    <       0.00065109 Ry

     total magnetization       =     2.17 Bohr mag/cell
     absolute magnetization    =     2.33 Bohr mag/cell

     iteration #  6     ecut=    50.00 Ry     beta=0.70
     Davidson diagonalization with overlap
     ethr =  4.07E-06,  avg # of iterations =  1.8

     negative rho (up, down):  0.000E+00 1.144E-04

     Magnetic moment per site:
     atom:    1    charge:   14.4047    magn:    2.1063    constr:    0.0000

     total cpu time spent up to now is       13.9 secs

     total energy              =    -329.26113939 Ry
     Harris-Foulkes estimate   =    -329.26146285 Ry
     estimated scf accuracy    <       0.00028305 Ry

     total magnetization       =     2.13 Bohr mag/cell
     absolute magnetization    =     2.29 Bohr mag/cell

     iteration #  7     ecut=    50.00 Ry     beta=0.70
     Davidson diagonalization with overlap
     ethr =  1.77E-06,  avg # of iterations =  2.3

     negative rho (up, down):  0.000E+00 1.399E-04

     Magnetic moment per site:
     atom:    1    charge:   14.4072    magn:    2.1252    constr:    0.0000

     total cpu time spent up to now is       15.8 secs

     total energy              =    -329.26193358 Ry
     Harris-Foulkes estimate   =    -329.26173121 Ry
     estimated scf accuracy    <       0.00008992 Ry

     total magnetization       =     2.04 Bohr mag/cell
     absolute magnetization    =     2.18 Bohr mag/cell

     iteration #  8     ecut=    50.00 Ry     beta=0.70
     Davidson diagonalization with overlap
     ethr =  5.62E-07,  avg # of iterations =  1.5

     negative rho (up, down):  0.000E+00 1.275E-04

     Magnetic moment per site:
     atom:    1    charge:   14.4076    magn:    2.0768    constr:    0.0000

     total cpu time spent up to now is       17.5 secs

     total energy              =    -329.26191814 Ry
     Harris-Foulkes estimate   =    -329.26194447 Ry
     estimated scf accuracy    <       0.00003661 Ry

     total magnetization       =     2.05 Bohr mag/cell
     absolute magnetization    =     2.19 Bohr mag/cell

     iteration #  9     ecut=    50.00 Ry     beta=0.70
     Davidson diagonalization with overlap
     ethr =  2.29E-07,  avg # of iterations =  2.3

     negative rho (up, down):  0.000E+00 1.250E-04

     Magnetic moment per site:
     atom:    1    charge:   14.4070    magn:    2.0703    constr:    0.0000

     total cpu time spent up to now is       19.3 secs

     total energy              =    -329.26200058 Ry
     Harris-Foulkes estimate   =    -329.26198021 Ry
     estimated scf accuracy    <       0.00000117 Ry

     total magnetization       =     2.02 Bohr mag/cell
     absolute magnetization    =     2.15 Bohr mag/cell

     iteration # 10     ecut=    50.00 Ry     beta=0.70
     Davidson diagonalization with overlap
     ethr =  7.31E-09,  avg # of iterations =  2.8

     negative rho (up, down):  0.000E+00 1.232E-04

     Magnetic moment per site:
     atom:    1    charge:   14.4069    magn:    2.0647    constr:    0.0000

     total cpu time spent up to now is       21.3 secs

     total energy              =    -329.26200741 Ry
     Harris-Foulkes estimate   =    -329.26200381 Ry
     estimated scf accuracy    <       0.00000053 Ry

     total magnetization       =     2.01 Bohr mag/cell
     absolute magnetization    =     2.14 Bohr mag/cell

     iteration # 11     ecut=    50.00 Ry     beta=0.70
     Davidson diagonalization with overlap
     ethr =  3.30E-09,  avg # of iterations =  2.0

     negative rho (up, down):  0.000E+00 1.234E-04

     Magnetic moment per site:
     atom:    1    charge:   14.4070    magn:    2.0641    constr:    0.0000

     total cpu time spent up to now is       22.9 secs

     total energy              =    -329.26201048 Ry
     Harris-Foulkes estimate   =    -329.26200884 Ry
     estimated scf accuracy    <       0.00000004 Ry

     total magnetization       =     2.01 Bohr mag/cell
     absolute magnetization    =     2.14 Bohr mag/cell

     iteration # 12     ecut=    50.00 Ry     beta=0.70
     Davidson diagonalization with overlap
     ethr =  2.48E-10,  avg # of iterations =  2.2

     negative rho (up, down):  0.000E+00 1.212E-04

     Magnetic moment per site:
     atom:    1    charge:   14.4069    magn:    2.0570    constr:    0.0000

     total cpu time spent up to now is       24.6 secs

     total energy              =    -329.26200828 Ry
     Harris-Foulkes estimate   =    -329.26201057 Ry
     estimated scf accuracy    <       0.00000007 Ry

     total magnetization       =     2.01 Bohr mag/cell
     absolute magnetization    =     2.14 Bohr mag/cell

     iteration # 13     ecut=    50.00 Ry     beta=0.70
     Davidson diagonalization with overlap
     ethr =  2.48E-10,  avg # of iterations =  2.9

     negative rho (up, down):  0.000E+00 1.232E-04

     Magnetic moment per site:
     atom:    1    charge:   14.4069    magn:    2.0630    constr:    0.0000

     total cpu time spent up to now is       26.5 secs

     total energy              =    -329.26201022 Ry
     Harris-Foulkes estimate   =    -329.26200956 Ry
     estimated scf accuracy    <       0.00000027 Ry

     total magnetization       =     2.00 Bohr mag/cell
     absolute magnetization    =     2.13 Bohr mag/cell

     iteration # 14     ecut=    50.00 Ry     beta=0.70
     Davidson diagonalization with overlap
     ethr =  2.48E-10,  avg # of iterations =  2.5

     negative rho (up, down):  0.000E+00 1.226E-04

     Magnetic moment per site:
     atom:    1    charge:   14.4069    magn:    2.0612    constr:    0.0000

     total cpu time spent up to now is       28.3 secs

     total energy              =    -329.26201094 Ry
     Harris-Foulkes estimate   =    -329.26201085 Ry
     estimated scf accuracy    <       0.00000006 Ry

     total magnetization       =     2.01 Bohr mag/cell
     absolute magnetization    =     2.14 Bohr mag/cell

     iteration # 15     ecut=    50.00 Ry     beta=0.70
     Davidson diagonalization with overlap
     ethr =  2.48E-10,  avg # of iterations =  1.9

     negative rho (up, down):  0.000E+00 1.226E-04

     Magnetic moment per site:
     atom:    1    charge:   14.4069    magn:    2.0611    constr:    0.0000

     total cpu time spent up to now is       30.0 secs

     End of self-consistent calculation

 ------ SPIN UP ------------


          k = 0.0000 0.0000 0.0000 (   459 PWs)   bands (ev):

   -70.0853 -35.8944 -35.8944 -35.8944   9.5278  15.8052  15.8052  15.8052
    16.7541  16.7541  42.7092  42.7092

          k = 0.0000-0.1250 0.1250 (   463 PWs)   bands (ev):

   -70.0747 -35.9533 -35.9137 -35.8940  10.1593  15.6368  15.7646  16.1431
    16.6304  16.7692  39.2945  41.6139

          k = 0.0000-0.2500 0.2500 (   465 PWs)   bands (ev):

   -70.0486 -36.0931 -35.9609 -35.8943  11.7871  15.2454  15.5825  16.6778
    16.8219  17.0227  33.5890  38.9793

          k = 0.0000-0.3750 0.3750 (   468 PWs)   bands (ev):

   -70.0225 -36.2316 -36.0075 -35.8942  12.9921  14.8734  16.4720  16.8991
    17.0588  18.0201  28.1517  36.9033

          k = 0.0000 0.5000-0.5000 (   476 PWs)   bands (ev):

   -70.0120 -36.2877 -36.0271 -35.8951  13.0952  14.7245  16.9052  16.9387
    18.4614  18.4795  25.1877  36.1331

          k =-0.1250-0.1250 0.2500 (   463 PWs)   bands (ev):

   -70.0562 -36.0492 -35.9362 -35.9081  11.3207  15.4461  15.4503  16.5253
    16.8424  16.8750  36.2908  37.4812

          k =-0.1250-0.2500 0.3750 (   464 PWs)   bands (ev):

   -70.0300 -36.1728 -35.9924 -35.9137  12.9575  15.0195  15.4040  16.6888
    17.0105  18.0904  31.0320  34.8482

          k =-0.1250 0.6250-0.5000 (   469 PWs)   bands (ev):

   -70.0117 -36.2568 -36.0379 -35.9151  13.4063  14.8029  16.1474  16.8756
    17.4538  19.8256  26.2477  33.5656

          k =-0.2500 0.7500-0.5000 (   468 PWs)   bands (ev):

   -70.0117 -36.2158 -36.0595 -35.9353  13.9988  14.6748  15.3620  16.8276
    17.2210  20.3025  28.8936  29.7549

          k =-0.2500 0.6250-0.3750 (   471 PWs)   bands (ev):

   -70.0041 -36.2146 -36.1099 -35.9407  14.1236  14.7754  15.3043  16.9899
    17.3410  22.8431  25.4743  28.7832

          k = 0.0000 0.0000 0.2500 (   466 PWs)   bands (ev):

   -70.0644 -35.9676 -35.9338 -35.9338  10.7599  15.8296  15.8296  16.1444
    16.2139  16.9669  38.5375  40.5322

          k = 0.0000-0.1250 0.3750 (   464 PWs)   bands (ev):

   -70.0391 -36.0887 -35.9820 -35.9410  12.2777  15.4163  15.5767  16.3115
    16.9457  17.2267  34.0249  37.8396

          k = 0.0000-0.2500 0.5000 (   464 PWs)   bands (ev):

   -70.0140 -36.2185 -36.0292 -35.9378  13.3628  15.2506  15.3195  16.6836
    17.9642  18.3948  28.5249  36.0069

          k = 0.0000 0.6250-0.3750 (   460 PWs)   bands (ev):

   -70.0033 -36.2712 -36.0488 -35.9362  13.4154  15.1175  15.6028  16.6766
    18.4397  20.2808  25.2817  35.1716

          k =-0.1250-0.1250 0.5000 (   461 PWs)   bands (ev):

   -70.0148 -36.1703 -36.0399 -35.9654  13.5223  14.7730  15.7003  16.4770
    17.4202  18.5182  31.5984  32.3155

          k =-0.1250 0.7500-0.3750 (   460 PWs)   bands (ev):

   -69.9977 -36.2311 -36.0930 -35.9668  13.8957  14.7203  15.3872  16.8093
    17.9262  21.2696  26.7915  30.6821

          k =-0.2500 0.2500 0.2500 (   471 PWs)   bands (ev):

   -70.0369 -36.1519 -35.9422 -35.9422  12.8002  15.0111  15.0111  16.8039
    16.8039  18.1436  33.9119  33.9119

          k =-0.2500 0.7500-0.2500 (   454 PWs)   bands (ev):

   -69.9908 -36.1811 -36.1811 -35.9711  14.3868  14.3868  15.0524  17.4878
    17.4878  24.9704  24.9704  27.3148

          k = 0.6250-0.6250 0.2500 (   472 PWs)   bands (ev):

   -70.0175 -36.2142 -36.0152 -35.9474  13.9349  14.7351  15.2896  16.9007
    16.9267  20.0448  28.8618  32.3497

          k = 0.5000-0.5000 0.2500 (   472 PWs)   bands (ev):

   -70.0094 -36.2279 -36.0572 -35.9499  13.8939  14.6448  16.0499  16.9560
    16.9667  22.0411  25.4496  31.7974

          k = 0.5000-0.6250 0.3750 (   467 PWs)   bands (ev):

   -70.0081 -36.1818 -36.0790 -35.9843  14.4279  14.7656  15.2215  16.9739
    16.9997  23.0126  27.1510  28.2455

          k = 0.0000 0.0000 0.5000 (   458 PWs)   bands (ev):

   -70.0162 -36.0977 -36.0319 -36.0319  13.2958  14.9000  16.2421  16.2421
    16.9821  18.0522  34.9255  34.9255

          k = 0.0000-0.1250 0.6250 (   461 PWs)   bands (ev):

   -69.9936 -36.1879 -36.0819 -36.0413  13.8087  14.2789  16.2564  16.6467
    17.8387  20.1892  29.6234  32.6086

          k = 0.0000 0.7500-0.2500 (   462 PWs)   bands (ev):

   -69.9842 -36.2334 -36.1028 -36.0366  13.7208  14.2222  16.1842  16.7457
    18.3442  23.0040  25.7231  31.6830

          k =-0.1250 0.8750-0.2500 (   466 PWs)   bands (ev):

   -69.9787 -36.2023 -36.1489 -36.0565  13.8011  13.8155  16.3061  17.4094
    18.0316  23.4356  27.7873  28.5332

          k = 0.5000-0.5000 0.5000 (   456 PWs)   bands (ev):

   -70.0063 -36.0859 -36.0859 -36.0859  14.8611  14.8611  14.8611  16.9733
    16.9733  26.5675  26.5675  26.5675

          k = 0.0000 0.0000 0.7500 (   466 PWs)   bands (ev):

   -69.9735 -36.1673 -36.1347 -36.1347  13.5426  13.6082  17.3533  17.3533
    17.8458  22.6949  30.0025  30.0025

          k = 0.0000 0.8750-0.1250 (   470 PWs)   bands (ev):

   -69.9653 -36.1951 -36.1561 -36.1374  13.3370  13.3711  17.5170  17.6908
    18.2496  25.9169  26.7968  28.9541

          k = 0.0000 0.0000-1.0000 (   466 PWs)   bands (ev):

   -69.9573 -36.1781 -36.1781 -36.1781  13.0864  13.0864  18.2107  18.2107
    18.2107  27.8102  27.8102  27.8102

 ------ SPIN DOWN ----------


          k = 0.0000 0.0000 0.0000 (   459 PWs)   bands (ev):

   -67.6361 -33.4876 -33.4876 -33.4876   9.6539  17.3423  17.3423  17.3423
    19.6962  19.6962  42.4317  42.4317

          k = 0.0000-0.1250 0.1250 (   463 PWs)   bands (ev):

   -67.6246 -33.5526 -33.5086 -33.4873  10.2905  17.1457  17.2972  17.7057
    19.4962  19.7129  39.4692  41.5583

          k = 0.0000-0.2500 0.2500 (   465 PWs)   bands (ev):

   -67.5964 -33.7071 -33.5602 -33.4876  11.9973  16.6927  17.1018  18.6589
    19.2968  19.7804  34.1465  39.0704

          k = 0.0000-0.3750 0.3750 (   468 PWs)   bands (ev):

   -67.5681 -33.8598 -33.6112 -33.4874  13.7702  16.2665  17.4526  19.3794
    19.7561  19.8893  29.0193  36.9577

          k = 0.0000 0.5000-0.5000 (   476 PWs)   bands (ev):

   -67.5566 -33.9219 -33.6323 -33.4883  14.2432  16.0970  18.5235  19.4485
    19.9479  20.2694  26.3864  36.1584

          k =-0.1250-0.1250 0.2500 (   463 PWs)   bands (ev):

   -67.6047 -33.6586 -33.5332 -33.5027  11.4802  16.9153  17.0034  18.4416
    19.2412  19.8117  36.6811  37.8119

          k =-0.1250-0.2500 0.3750 (   464 PWs)   bands (ev):

   -67.5763 -33.7950 -33.5949 -33.5089  13.3806  16.4702  16.7870  19.2000
    19.5980  20.0230  31.7033  35.2497

          k =-0.1250 0.6250-0.5000 (   469 PWs)   bands (ev):

   -67.5564 -33.8875 -33.6447 -33.5104  14.5008  16.1722  17.3846  19.3747
    19.9453  21.1739  27.2560  33.9570

          k =-0.2500 0.7500-0.5000 (   468 PWs)   bands (ev):

   -67.5564 -33.8421 -33.6692 -33.5323  14.9041  16.1912  16.5665  19.2821
    19.8568  21.7306  29.6656  30.3509

          k =-0.2500 0.6250-0.3750 (   471 PWs)   bands (ev):

   -67.5481 -33.8407 -33.7248 -33.5381  15.3564  16.1541  16.6538  19.4616
    19.7915  23.8604  26.4769  29.4245

          k = 0.0000 0.0000 0.2500 (   466 PWs)   bands (ev):

   -67.6135 -33.5689 -33.5306 -33.5306  10.9042  17.3355  17.3355  17.7108
    18.9748  19.9458  38.7678  40.7518

          k = 0.0000-0.1250 0.3750 (   464 PWs)   bands (ev):

   -67.5862 -33.7023 -33.5834 -33.5388  12.5388  17.0408  17.1942  18.5659
    18.5736  20.1313  34.5969  38.1589

          k = 0.0000-0.2500 0.5000 (   464 PWs)   bands (ev):

   -67.5589 -33.8453 -33.6352 -33.5354  14.2397  16.6676  17.0012  18.8762
    19.6934  20.5820  29.3643  36.4654

          k = 0.0000 0.6250-0.3750 (   460 PWs)   bands (ev):

   -67.5475 -33.9035 -33.6566 -33.5336  14.6972  16.5161  17.3059  18.9954
    20.2258  21.6028  26.4310  35.6100

          k =-0.1250-0.1250 0.5000 (   461 PWs)   bands (ev):

   -67.5599 -33.7922 -33.6472 -33.5656  14.1799  16.6711  17.1332  18.4624
    19.3838  20.6777  32.3346  32.8367

          k =-0.1250 0.7500-0.3750 (   460 PWs)   bands (ev):

   -67.5414 -33.8588 -33.7057 -33.5671  15.2541  16.4108  16.8746  18.8542
    19.8511  22.6212  27.7137  31.2824

          k =-0.2500 0.2500 0.2500 (   471 PWs)   bands (ev):

   -67.5838 -33.7717 -33.5400 -33.5400  13.0361  16.4573  16.4573  19.6347
    19.6347  19.7264  34.3561  34.3561

          k =-0.2500 0.7500-0.2500 (   454 PWs)   bands (ev):

   -67.5339 -33.8032 -33.8032 -33.5720  16.1193  16.1193  16.3460  19.4366
    19.4366  25.9751  25.9751  28.0312

          k = 0.6250-0.6250 0.2500 (   472 PWs)   bands (ev):

   -67.5626 -33.8403 -33.6203 -33.5460  14.7188  16.0675  16.3838  19.6402
    19.8871  21.4068  29.5734  32.7756

          k = 0.5000-0.5000 0.2500 (   472 PWs)   bands (ev):

   -67.5538 -33.8558 -33.6665 -33.5486  15.0493  15.9319  16.9656  19.6847
    19.9716  22.9653  26.4781  32.2058

          k = 0.5000-0.6250 0.3750 (   467 PWs)   bands (ev):

   -67.5526 -33.8047 -33.6910 -33.5867  15.5740  16.0027  16.2445  19.8176
    19.9407  23.9936  27.8778  28.8972

          k = 0.0000 0.0000 0.5000 (   458 PWs)   bands (ev):

   -67.5614 -33.7128 -33.6383 -33.6383  13.8742  17.2651  17.7285  17.7285
    18.6250  20.5690  35.3961  35.3961

          k = 0.0000-0.1250 0.6250 (   461 PWs)   bands (ev):

   -67.5369 -33.8112 -33.6932 -33.6491  15.0988  16.3308  17.7464  18.3428
    19.5547  21.8057  30.3398  33.0542

          k = 0.0000 0.7500-0.2500 (   462 PWs)   bands (ev):

   -67.5267 -33.8607 -33.7161 -33.6441  15.4650  16.0404  17.6671  18.5081
    20.1213  24.0576  26.6750  32.0922

          k =-0.1250 0.8750-0.2500 (   466 PWs)   bands (ev):

   -67.5207 -33.8262 -33.7670 -33.6656  15.5719  15.7607  17.7784  19.0931
    19.7962  24.4663  28.5639  29.0894

          k = 0.5000-0.5000 0.5000 (   456 PWs)   bands (ev):

   -67.5506 -33.6990 -33.6990 -33.6990  15.9757  15.9757  15.9757  19.9954
    19.9954  27.2556  27.2556  27.2556

          k = 0.0000 0.0000 0.7500 (   466 PWs)   bands (ev):

   -67.5150 -33.7879 -33.7513 -33.7513  15.2728  15.6514  18.9461  18.9461
    19.5731  23.6955  30.3785  30.3785

          k = 0.0000 0.8750-0.1250 (   470 PWs)   bands (ev):

   -67.5060 -33.8178 -33.7748 -33.7543  15.2715  15.2810  19.1559  19.3428
    20.0179  26.5563  27.3437  29.2597

          k = 0.0000 0.0000-1.0000 (   466 PWs)   bands (ev):

   -67.4971 -33.7990 -33.7990 -33.7990  15.0170  15.0170  19.9754  19.9754
    19.9754  28.0103  28.0103  28.0103

     the Fermi energy is    17.9750 ev

!    total energy              =    -329.26201101 Ry
     Harris-Foulkes estimate   =    -329.26201100 Ry
     estimated scf accuracy    <          5.6E-10 Ry

     total all-electron energy =     -2545.558547 Ry

     The total energy is the sum of the following terms:

     one-electron contribution =    -110.99037083 Ry
     hartree contribution      =      65.85247507 Ry
     xc contribution           =     -34.80595048 Ry
     ewald contribution        =    -173.16798571 Ry
     one-center paw contrib.   =     -76.15087258 Ry
     smearing contrib. (-TS)   =       0.00069352 Ry

     total magnetization       =     2.00 Bohr mag/cell
     absolute magnetization    =     2.14 Bohr mag/cell

     convergence has been achieved in  15 iterations

     Forces acting on atoms (Ry/au):


     negative rho (up, down):  0.000E+00 1.226E-04
     atom    1 type  1   force =     0.00000000    0.00000000    0.00000000

     Total force =     0.000000     Total SCF correction =     0.000000


     entering subroutine stress ...


     negative rho (up, down):  0.000E+00 1.226E-04
          total   stress  (Ry/bohr**3)                   (kbar)     P= -129.12
  -0.00087771   0.00000000   0.00000000       -129.12      0.00      0.00
   0.00000000  -0.00087771   0.00000000          0.00   -129.12      0.00
   0.00000000   0.00000000  -0.00087771          0.00      0.00   -129.12


     Writing output data file Fe_bcc.save

     init_run     :      1.49s CPU      1.56s WALL (       1 calls)
     electrons    :     27.13s CPU     28.08s WALL (       1 calls)
     forces       :      0.12s CPU      0.12s WALL (       1 calls)
     stress       :      0.42s CPU      0.43s WALL (       1 calls)

     Called by init_run:
     wfcinit      :      0.42s CPU      0.42s WALL (       1 calls)
     potinit      :      0.55s CPU      0.57s WALL (       1 calls)

     Called by electrons:
     c_bands      :     16.00s CPU     16.40s WALL (      15 calls)
     sum_band     :      2.98s CPU      3.11s WALL (      15 calls)
     v_of_rho     :      0.36s CPU      0.37s WALL (      16 calls)
     newd         :      0.25s CPU      0.27s WALL (      16 calls)
     mix_rho      :      0.04s CPU      0.05s WALL (      15 calls)

     Called by c_bands:
     init_us_2    :      0.33s CPU      0.34s WALL (    1914 calls)
     cegterg      :     15.36s CPU     15.73s WALL (     870 calls)

     Called by *egterg:
     h_psi        :     12.98s CPU     13.41s WALL (    2904 calls)
     s_psi        :      0.35s CPU      0.29s WALL (    2904 calls)
     g_psi        :      0.07s CPU      0.08s WALL (    1976 calls)
     cdiaghg      :      0.88s CPU      0.90s WALL (    2846 calls)

     Called by h_psi:
     add_vuspsi   :      0.37s CPU      0.31s WALL (    2904 calls)

     General routines
     calbec       :      0.39s CPU      0.40s WALL (    3890 calls)
     fft          :      0.19s CPU      0.19s WALL (     530 calls)
     ffts         :      0.02s CPU      0.02s WALL (      62 calls)
     fftw         :     13.20s CPU     13.70s WALL (   63102 calls)
     interpolate  :      0.05s CPU      0.05s WALL (      62 calls)
     davcio       :      0.00s CPU      0.00s WALL (      58 calls)


     PAW routines
     PAW_pot      :      8.01s CPU      8.41s WALL (      16 calls)
     PAW_symme    :      0.02s CPU      0.02s WALL (      31 calls)

     PWSCF        :    29.62s CPU        30.72s WALL


   This run was terminated on:  10:16:58  11May2015            

=------------------------------------------------------------------------------=
   JOB DONE.
=------------------------------------------------------------------------------=
