
     Program PWSCF v.5.1.2 starts on 11May2015 at 10:25:53 

     This program is part of the open-source Quantum ESPRESSO suite
     for quantum simulation of materials; please cite
         "P. Giannozzi et al., J. Phys.:Condens. Matter 21 395502 (2009);
          URL http://www.quantum-espresso.org", 
     in publications or presentations arising from this work. More details at
     http://www.quantum-espresso.org/quote

     Serial version
     Reading input from Fe_bcc_5.46_9.pw.in

     Current dimensions of program PWSCF are:
     Max number of different atomic species (ntypx) = 10
     Max number of k-points (npk) =  40000
     Max angular momentum in pseudopotentials (lmaxx) =  3
               file Fe.pbe-spn-kjpaw_psl.0.2.1.UPF: wavefunction(s)  3D renormalized

     G-vector sticks info
     --------------------
     sticks:   dense  smooth     PW     G-vecs:    dense   smooth      PW
     Sum         411     337    117                 5425     3925     767

     Generating pointlists ...
     new r_m :   0.3572 (alat units)  1.9505 (a.u.) for type    1


     bravais-lattice index     =            3
     lattice parameter (alat)  =       5.4600  a.u.
     unit-cell volume          =      81.3857 (a.u.)^3
     number of atoms/cell      =            1
     number of atomic types    =            1
     number of electrons       =        16.00
     number of Kohn-Sham states=           12
     kinetic-energy cutoff     =      50.0000  Ry
     charge density cutoff     =     250.0000  Ry
     convergence threshold     =      1.0E-08
     mixing beta               =       0.7000
     number of iterations used =            8  plain     mixing
     Exchange-correlation      =  SLA  PW   PBX  PBC ( 1  4  3  4 0 0)

     celldm(1)=   5.460000  celldm(2)=   0.000000  celldm(3)=   0.000000
     celldm(4)=   0.000000  celldm(5)=   0.000000  celldm(6)=   0.000000

     crystal axes: (cart. coord. in units of alat)
               a(1) = (   0.500000   0.500000   0.500000 )  
               a(2) = (  -0.500000   0.500000   0.500000 )  
               a(3) = (  -0.500000  -0.500000   0.500000 )  

     reciprocal axes: (cart. coord. in units 2 pi/alat)
               b(1) = (  1.000000  0.000000  1.000000 )  
               b(2) = ( -1.000000  1.000000  0.000000 )  
               b(3) = (  0.000000 -1.000000  1.000000 )  


     PseudoPot. # 1 for Fe read from file:
     ./Fe.pbe-spn-kjpaw_psl.0.2.1.UPF
     MD5 check sum: a0a08122d52b112de96d1da1d7dd020f
     Pseudo is Projector augmented-wave + core cor, Zval = 16.0
     Generated using "atomic" code by A. Dal Corso  v.5.0.2 svn rev. 9415
     Shape of augmentation charge: PSQ
     Using radial grid of 1191 points,  6 beta functions with: 
                l(1) =   0
                l(2) =   0
                l(3) =   1
                l(4) =   1
                l(5) =   2
                l(6) =   2
     Q(r) pseudized with 0 coefficients 


     atomic species   valence    mass     pseudopotential
        Fe            16.00    55.85000     Fe( 1.00)

     Starting magnetic structure 
     atomic species   magnetization
        Fe           0.700

     48 Sym. Ops., with inversion, found



   Cartesian axes

     site n.     atom                  positions (alat units)
         1           Fe  tau(   1) = (   0.0000000   0.0000000   0.0000000  )

     number of k points=    70  Marzari-Vanderbilt smearing, width (Ry)=  0.0250
                       cart. coord. in units 2pi/alat
        k(    1) = (   0.0000000   0.0000000   0.0000000), wk =   0.0013717
        k(    2) = (   0.0000000  -0.1111111   0.1111111), wk =   0.0164609
        k(    3) = (   0.0000000  -0.2222222   0.2222222), wk =   0.0164609
        k(    4) = (   0.0000000  -0.3333333   0.3333333), wk =   0.0164609
        k(    5) = (   0.0000000  -0.4444444   0.4444444), wk =   0.0164609
        k(    6) = (  -0.1111111  -0.1111111   0.2222222), wk =   0.0329218
        k(    7) = (  -0.1111111  -0.2222222   0.3333333), wk =   0.0658436
        k(    8) = (  -0.1111111  -0.3333333   0.4444444), wk =   0.0658436
        k(    9) = (  -0.1111111   0.5555556  -0.4444444), wk =   0.0329218
        k(   10) = (  -0.2222222  -0.2222222   0.4444444), wk =   0.0329218
        k(   11) = (  -0.2222222   0.6666667  -0.4444444), wk =   0.0658436
        k(   12) = (  -0.3333333   0.6666667  -0.3333333), wk =   0.0109739
        k(   13) = (   0.0000000   0.0000000   0.2222222), wk =   0.0082305
        k(   14) = (   0.0000000  -0.1111111   0.3333333), wk =   0.0329218
        k(   15) = (   0.0000000  -0.2222222   0.4444444), wk =   0.0329218
        k(   16) = (   0.0000000  -0.3333333   0.5555556), wk =   0.0329218
        k(   17) = (  -0.1111111  -0.1111111   0.4444444), wk =   0.0329218
        k(   18) = (  -0.1111111  -0.2222222   0.5555556), wk =   0.0658436
        k(   19) = (  -0.1111111   0.6666667  -0.3333333), wk =   0.0329218
        k(   20) = (  -0.2222222   0.2222222   0.2222222), wk =   0.0109739
        k(   21) = (  -0.2222222   0.7777778  -0.3333333), wk =   0.0329218
        k(   22) = (  -0.3333333   0.3333333   0.2222222), wk =   0.0329218
        k(   23) = (   0.5555556  -0.5555556   0.2222222), wk =   0.0329218
        k(   24) = (   0.5555556  -0.6666667   0.3333333), wk =   0.0329218
        k(   25) = (   0.4444444  -0.5555556   0.3333333), wk =   0.0329218
        k(   26) = (   0.0000000   0.0000000   0.4444444), wk =   0.0082305
        k(   27) = (   0.0000000  -0.1111111   0.5555556), wk =   0.0329218
        k(   28) = (   0.0000000  -0.2222222   0.6666667), wk =   0.0329218
        k(   29) = (  -0.1111111  -0.1111111   0.6666667), wk =   0.0329218
        k(   30) = (  -0.1111111   0.7777778  -0.2222222), wk =   0.0329218
        k(   31) = (   0.5555556  -0.5555556   0.4444444), wk =   0.0109739
        k(   32) = (   0.0000000   0.0000000   0.6666667), wk =   0.0082305
        k(   33) = (   0.0000000  -0.1111111   0.7777778), wk =   0.0329218
        k(   34) = (  -0.1111111   0.8888889  -0.1111111), wk =   0.0109739
        k(   35) = (   0.0000000   0.0000000   0.8888889), wk =   0.0082305
        k(   36) = (   0.0000000   0.0000000   0.0000000), wk =   0.0013717
        k(   37) = (   0.0000000  -0.1111111   0.1111111), wk =   0.0164609
        k(   38) = (   0.0000000  -0.2222222   0.2222222), wk =   0.0164609
        k(   39) = (   0.0000000  -0.3333333   0.3333333), wk =   0.0164609
        k(   40) = (   0.0000000  -0.4444444   0.4444444), wk =   0.0164609
        k(   41) = (  -0.1111111  -0.1111111   0.2222222), wk =   0.0329218
        k(   42) = (  -0.1111111  -0.2222222   0.3333333), wk =   0.0658436
        k(   43) = (  -0.1111111  -0.3333333   0.4444444), wk =   0.0658436
        k(   44) = (  -0.1111111   0.5555556  -0.4444444), wk =   0.0329218
        k(   45) = (  -0.2222222  -0.2222222   0.4444444), wk =   0.0329218
        k(   46) = (  -0.2222222   0.6666667  -0.4444444), wk =   0.0658436
        k(   47) = (  -0.3333333   0.6666667  -0.3333333), wk =   0.0109739
        k(   48) = (   0.0000000   0.0000000   0.2222222), wk =   0.0082305
        k(   49) = (   0.0000000  -0.1111111   0.3333333), wk =   0.0329218
        k(   50) = (   0.0000000  -0.2222222   0.4444444), wk =   0.0329218
        k(   51) = (   0.0000000  -0.3333333   0.5555556), wk =   0.0329218
        k(   52) = (  -0.1111111  -0.1111111   0.4444444), wk =   0.0329218
        k(   53) = (  -0.1111111  -0.2222222   0.5555556), wk =   0.0658436
        k(   54) = (  -0.1111111   0.6666667  -0.3333333), wk =   0.0329218
        k(   55) = (  -0.2222222   0.2222222   0.2222222), wk =   0.0109739
        k(   56) = (  -0.2222222   0.7777778  -0.3333333), wk =   0.0329218
        k(   57) = (  -0.3333333   0.3333333   0.2222222), wk =   0.0329218
        k(   58) = (   0.5555556  -0.5555556   0.2222222), wk =   0.0329218
        k(   59) = (   0.5555556  -0.6666667   0.3333333), wk =   0.0329218
        k(   60) = (   0.4444444  -0.5555556   0.3333333), wk =   0.0329218
        k(   61) = (   0.0000000   0.0000000   0.4444444), wk =   0.0082305
        k(   62) = (   0.0000000  -0.1111111   0.5555556), wk =   0.0329218
        k(   63) = (   0.0000000  -0.2222222   0.6666667), wk =   0.0329218
        k(   64) = (  -0.1111111  -0.1111111   0.6666667), wk =   0.0329218
        k(   65) = (  -0.1111111   0.7777778  -0.2222222), wk =   0.0329218
        k(   66) = (   0.5555556  -0.5555556   0.4444444), wk =   0.0109739
        k(   67) = (   0.0000000   0.0000000   0.6666667), wk =   0.0082305
        k(   68) = (   0.0000000  -0.1111111   0.7777778), wk =   0.0329218
        k(   69) = (  -0.1111111   0.8888889  -0.1111111), wk =   0.0109739
        k(   70) = (   0.0000000   0.0000000   0.8888889), wk =   0.0082305

     Dense  grid:     5425 G-vectors     FFT dimensions: (  24,  24,  24)

     Smooth grid:     3925 G-vectors     FFT dimensions: (  24,  24,  24)

     Largest allocated arrays     est. size (Mb)     dimensions
        Kohn-Sham Wavefunctions         0.09 Mb     (     493,   12)
        NL pseudopotentials             0.14 Mb     (     493,   18)
        Each V/rho on FFT grid          0.42 Mb     (   13824,   2)
        Each G-vector array             0.04 Mb     (    5425)
        G-vector shells                 0.00 Mb     (      88)
     Largest temporary arrays     est. size (Mb)     dimensions
        Auxiliary wavefunctions         0.36 Mb     (     493,   48)
        Each subspace H/S matrix        0.04 Mb     (      48,   48)
        Each <psi_i|beta_j> matrix      0.00 Mb     (      18,   12)
        Arrays for rho mixing           1.69 Mb     (   13824,    8)

     Check: negative/imaginary core charge=   -0.000416    0.000000

     Initial potential from superposition of free atoms

     starting charge   15.99956, renormalised to   16.00000
     Starting wfc are   13 randomized atomic wfcs

     total cpu time spent up to now is        2.0 secs

     Self-consistent Calculation

     iteration #  1     ecut=    50.00 Ry     beta=0.70
     Davidson diagonalization with overlap
     ethr =  1.00E-02,  avg # of iterations =  3.1

     negative rho (up, down):  0.000E+00 3.616E-04

     Magnetic moment per site:
     atom:    1    charge:   14.3075    magn:    5.7139    constr:    0.0000

     total cpu time spent up to now is        4.2 secs

     total energy              =    -328.99117047 Ry
     Harris-Foulkes estimate   =    -328.07006153 Ry
     estimated scf accuracy    <       1.50318458 Ry

     total magnetization       =     3.86 Bohr mag/cell
     absolute magnetization    =     3.90 Bohr mag/cell

     iteration #  2     ecut=    50.00 Ry     beta=0.70
     Davidson diagonalization with overlap
     ethr =  9.39E-03,  avg # of iterations =  1.3

     negative rho (up, down):  0.000E+00 3.881E-04

     Magnetic moment per site:
     atom:    1    charge:   14.5369    magn:    3.5512    constr:    0.0000

     total cpu time spent up to now is        6.1 secs

     total energy              =    -329.15838335 Ry
     Harris-Foulkes estimate   =    -329.10601845 Ry
     estimated scf accuracy    <       0.34976314 Ry

     total magnetization       =     3.09 Bohr mag/cell
     absolute magnetization    =     3.22 Bohr mag/cell

     iteration #  3     ecut=    50.00 Ry     beta=0.70
     Davidson diagonalization with overlap
     ethr =  2.19E-03,  avg # of iterations =  2.0

     negative rho (up, down):  0.000E+00 4.005E-04

     Magnetic moment per site:
     atom:    1    charge:   14.4213    magn:    2.5470    constr:    0.0000

     total cpu time spent up to now is        8.1 secs

     total energy              =    -329.17964872 Ry
     Harris-Foulkes estimate   =    -329.34589758 Ry
     estimated scf accuracy    <       0.47973663 Ry

     total magnetization       =     2.58 Bohr mag/cell
     absolute magnetization    =     2.73 Bohr mag/cell

     iteration #  4     ecut=    50.00 Ry     beta=0.70
     Davidson diagonalization with overlap
     ethr =  2.19E-03,  avg # of iterations =  2.0

     negative rho (up, down):  0.000E+00 2.672E-04

     Magnetic moment per site:
     atom:    1    charge:   14.4544    magn:    2.4438    constr:    0.0000

     total cpu time spent up to now is        9.9 secs

     total energy              =    -329.25761325 Ry
     Harris-Foulkes estimate   =    -329.25691993 Ry
     estimated scf accuracy    <       0.00132800 Ry

     total magnetization       =     2.43 Bohr mag/cell
     absolute magnetization    =     2.60 Bohr mag/cell

     iteration #  5     ecut=    50.00 Ry     beta=0.70
     Davidson diagonalization with overlap
     ethr =  8.30E-06,  avg # of iterations =  3.5

     negative rho (up, down):  0.000E+00 2.647E-04

     Magnetic moment per site:
     atom:    1    charge:   14.4519    magn:    2.4224    constr:    0.0000

     total cpu time spent up to now is       12.5 secs

     total energy              =    -329.26016337 Ry
     Harris-Foulkes estimate   =    -329.25993367 Ry
     estimated scf accuracy    <       0.00045582 Ry

     total magnetization       =     2.32 Bohr mag/cell
     absolute magnetization    =     2.47 Bohr mag/cell

     iteration #  6     ecut=    50.00 Ry     beta=0.70
     Davidson diagonalization with overlap
     ethr =  2.85E-06,  avg # of iterations =  1.0

     negative rho (up, down):  0.000E+00 2.236E-04

     Magnetic moment per site:
     atom:    1    charge:   14.4487    magn:    2.3160    constr:    0.0000

     total cpu time spent up to now is       14.4 secs

     total energy              =    -329.26033863 Ry
     Harris-Foulkes estimate   =    -329.26020378 Ry
     estimated scf accuracy    <       0.00038918 Ry

     total magnetization       =     2.30 Bohr mag/cell
     absolute magnetization    =     2.45 Bohr mag/cell

     iteration #  7     ecut=    50.00 Ry     beta=0.70
     Davidson diagonalization with overlap
     ethr =  2.43E-06,  avg # of iterations =  1.6

     negative rho (up, down):  0.000E+00 1.958E-04

     Magnetic moment per site:
     atom:    1    charge:   14.4446    magn:    2.2341    constr:    0.0000

     total cpu time spent up to now is       16.3 secs

     total energy              =    -329.26064521 Ry
     Harris-Foulkes estimate   =    -329.26064420 Ry
     estimated scf accuracy    <       0.00009599 Ry

     total magnetization       =     2.22 Bohr mag/cell
     absolute magnetization    =     2.36 Bohr mag/cell

     iteration #  8     ecut=    50.00 Ry     beta=0.70
     Davidson diagonalization with overlap
     ethr =  6.00E-07,  avg # of iterations =  2.0

     negative rho (up, down):  0.000E+00 1.857E-04

     Magnetic moment per site:
     atom:    1    charge:   14.4443    magn:    2.2063    constr:    0.0000

     total cpu time spent up to now is       18.3 secs

     total energy              =    -329.26089834 Ry
     Harris-Foulkes estimate   =    -329.26083920 Ry
     estimated scf accuracy    <       0.00000652 Ry

     total magnetization       =     2.17 Bohr mag/cell
     absolute magnetization    =     2.30 Bohr mag/cell

     iteration #  9     ecut=    50.00 Ry     beta=0.70
     Davidson diagonalization with overlap
     ethr =  4.07E-08,  avg # of iterations =  3.0

     negative rho (up, down):  0.000E+00 1.861E-04

     Magnetic moment per site:
     atom:    1    charge:   14.4444    magn:    2.2026    constr:    0.0000

     total cpu time spent up to now is       20.5 secs

     total energy              =    -329.26096123 Ry
     Harris-Foulkes estimate   =    -329.26093247 Ry
     estimated scf accuracy    <       0.00000156 Ry

     total magnetization       =     2.15 Bohr mag/cell
     absolute magnetization    =     2.28 Bohr mag/cell

     iteration # 10     ecut=    50.00 Ry     beta=0.70
     Davidson diagonalization with overlap
     ethr =  9.74E-09,  avg # of iterations =  2.1

     negative rho (up, down):  0.000E+00 1.851E-04

     Magnetic moment per site:
     atom:    1    charge:   14.4444    magn:    2.1975    constr:    0.0000

     total cpu time spent up to now is       22.4 secs

     total energy              =    -329.26096884 Ry
     Harris-Foulkes estimate   =    -329.26096390 Ry
     estimated scf accuracy    <       0.00000097 Ry

     total magnetization       =     2.15 Bohr mag/cell
     absolute magnetization    =     2.27 Bohr mag/cell

     iteration # 11     ecut=    50.00 Ry     beta=0.70
     Davidson diagonalization with overlap
     ethr =  6.07E-09,  avg # of iterations =  1.9

     negative rho (up, down):  0.000E+00 1.839E-04

     Magnetic moment per site:
     atom:    1    charge:   14.4443    magn:    2.1932    constr:    0.0000

     total cpu time spent up to now is       24.2 secs

     total energy              =    -329.26097127 Ry
     Harris-Foulkes estimate   =    -329.26097012 Ry
     estimated scf accuracy    <       0.00000049 Ry

     total magnetization       =     2.14 Bohr mag/cell
     absolute magnetization    =     2.27 Bohr mag/cell

     iteration # 12     ecut=    50.00 Ry     beta=0.70
     Davidson diagonalization with overlap
     ethr =  3.08E-09,  avg # of iterations =  1.9

     negative rho (up, down):  0.000E+00 1.801E-04

     Magnetic moment per site:
     atom:    1    charge:   14.4441    magn:    2.1824    constr:    0.0000

     total cpu time spent up to now is       26.1 secs

     total energy              =    -329.26096493 Ry
     Harris-Foulkes estimate   =    -329.26097192 Ry
     estimated scf accuracy    <       0.00000012 Ry

     total magnetization       =     2.14 Bohr mag/cell
     absolute magnetization    =     2.27 Bohr mag/cell

     iteration # 13     ecut=    50.00 Ry     beta=0.70
     Davidson diagonalization with overlap
     ethr =  7.56E-10,  avg # of iterations =  3.2

     negative rho (up, down):  0.000E+00 1.835E-04

     Magnetic moment per site:
     atom:    1    charge:   14.4443    magn:    2.1916    constr:    0.0000

     total cpu time spent up to now is       28.4 secs

     total energy              =    -329.26097084 Ry
     Harris-Foulkes estimate   =    -329.26096820 Ry
     estimated scf accuracy    <       0.00000113 Ry

     total magnetization       =     2.13 Bohr mag/cell
     absolute magnetization    =     2.26 Bohr mag/cell

     iteration # 14     ecut=    50.00 Ry     beta=0.70
     Davidson diagonalization with overlap
     ethr =  7.56E-10,  avg # of iterations =  2.4

     negative rho (up, down):  0.000E+00 1.831E-04

     Magnetic moment per site:
     atom:    1    charge:   14.4442    magn:    2.1905    constr:    0.0000

     total cpu time spent up to now is       30.5 secs

     total energy              =    -329.26097272 Ry
     Harris-Foulkes estimate   =    -329.26097250 Ry
     estimated scf accuracy    <       0.00000008 Ry

     total magnetization       =     2.14 Bohr mag/cell
     absolute magnetization    =     2.26 Bohr mag/cell

     iteration # 15     ecut=    50.00 Ry     beta=0.70
     Davidson diagonalization with overlap
     ethr =  5.28E-10,  avg # of iterations =  1.0

     negative rho (up, down):  0.000E+00 1.826E-04

     Magnetic moment per site:
     atom:    1    charge:   14.4442    magn:    2.1887    constr:    0.0000

     total cpu time spent up to now is       32.3 secs

     total energy              =    -329.26097266 Ry
     Harris-Foulkes estimate   =    -329.26097274 Ry
     estimated scf accuracy    <       0.00000002 Ry

     total magnetization       =     2.14 Bohr mag/cell
     absolute magnetization    =     2.26 Bohr mag/cell

     iteration # 16     ecut=    50.00 Ry     beta=0.70
     Davidson diagonalization with overlap
     ethr =  1.18E-10,  avg # of iterations =  2.0

     negative rho (up, down):  0.000E+00 1.827E-04

     Magnetic moment per site:
     atom:    1    charge:   14.4442    magn:    2.1890    constr:    0.0000

     total cpu time spent up to now is       34.5 secs

     End of self-consistent calculation

 ------ SPIN UP ------------


          k = 0.0000 0.0000 0.0000 (   459 PWs)   bands (ev):

   -71.0268 -36.8665 -36.8665 -36.8665   8.8036  14.8910  14.8910  14.8910
    15.7806  15.7806  41.2909  41.2909

          k = 0.0000-0.1111 0.1111 (   487 PWs)   bands (ev):

   -71.0208 -36.9094 -36.8819 -36.8690   9.2870  14.7657  14.8668  15.1427
    15.6811  15.7913  38.4002  40.4057

          k = 0.0000-0.2222 0.2222 (   491 PWs)   bands (ev):

   -71.0029 -37.0102 -36.9166 -36.8696  10.6011  14.4579  14.7056  15.6693
    15.8198  15.8288  33.4032  38.1109

          k = 0.0000-0.3333 0.3333 (   489 PWs)   bands (ev):

   -70.9822 -37.1233 -36.9549 -36.8697  11.9831  14.1228  15.0644  15.8887
    15.8899  16.6761  28.4292  36.0566

          k = 0.0000-0.4444 0.4444 (   488 PWs)   bands (ev):

   -70.9687 -37.1966 -36.9798 -36.8693  12.3306  13.9120  15.8762  15.9412
    17.0269  17.3003  24.5317  34.9288

          k =-0.1111-0.1111 0.2222 (   489 PWs)   bands (ev):

   -71.0083 -36.9788 -36.8978 -36.8787  10.1982  14.6143  14.6473  15.5751
    15.6666  15.8613  35.7191  36.8608

          k =-0.1111-0.2222 0.3333 (   488 PWs)   bands (ev):

   -70.9889 -37.0773 -36.9382 -36.8829  11.6789  14.2693  14.4908  15.6586
    15.9623  16.5932  31.0725  34.4085

          k =-0.1111-0.3333 0.4444 (   488 PWs)   bands (ev):

   -70.9719 -37.1607 -36.9789 -36.8837  12.5214  14.0151  15.0541  15.8761
    16.2138  17.8467  26.4383  32.9735

          k =-0.1111 0.5556-0.4444 (   488 PWs)   bands (ev):

   -70.9651 -37.1934 -36.9947 -36.8838  12.5714  13.9230  15.4545  15.8941
    16.6324  19.0534  23.8770  32.4646

          k =-0.2222-0.2222 0.4444 (   488 PWs)   bands (ev):

   -70.9731 -37.1325 -36.9828 -36.8994  12.8530  13.9344  14.4474  15.7508
    16.1291  18.0837  29.0425  29.7400

          k =-0.2222 0.6667-0.4444 (   484 PWs)   bands (ev):

   -70.9626 -37.1543 -37.0305 -36.9048  13.1626  13.9184  14.5837  15.9277
    16.3297  20.3411  25.0986  28.4673

          k =-0.3333 0.6667-0.3333 (   481 PWs)   bands (ev):

   -70.9589 -37.1021 -37.1021 -36.9114  13.5898  14.0334  14.0334  16.1704
    16.1704  23.4608  23.4608  25.8078

          k = 0.0000 0.0000 0.2222 (   490 PWs)   bands (ev):

   -71.0139 -36.9196 -36.8964 -36.8964   9.7568  14.9045  14.9045  15.1449
    15.3818  15.9364  37.6404  39.4756

          k = 0.0000-0.1111 0.3333 (   486 PWs)   bands (ev):

   -70.9962 -37.0083 -36.9310 -36.9014  11.0093  14.6695  14.6958  15.3268
    15.7603  16.0990  33.7278  37.3258

          k = 0.0000-0.2222 0.4444 (   478 PWs)   bands (ev):

   -70.9760 -37.1161 -36.9693 -36.8989  12.2997  14.3949  14.4649  15.6949
    16.6252  16.6280  28.7584  35.4058

          k = 0.0000-0.3333 0.5556 (   486 PWs)   bands (ev):

   -70.9633 -37.1865 -36.9952 -36.8977  12.5904  14.2020  14.8030  15.7519
    17.2679  18.3807  24.7020  34.1708

          k =-0.1111-0.1111 0.4444 (   480 PWs)   bands (ev):

   -70.9778 -37.0786 -36.9711 -36.9204  12.2514  14.1629  14.7760  15.4058
    16.2303  16.7870  31.4666  32.2122

          k =-0.1111-0.2222 0.5556 (   485 PWs)   bands (ev):

   -70.9620 -37.1467 -37.0154 -36.9231  12.9658  13.9357  14.5959  15.7164
    16.6975  18.6300  27.0074  30.4367

          k =-0.1111 0.6667-0.3333 (   486 PWs)   bands (ev):

   -70.9558 -37.1738 -37.0334 -36.9228  12.9674  14.2111  14.3365  15.7890
    17.0205  20.5882  24.0664  29.8889

          k =-0.2222 0.2222 0.2222 (   489 PWs)   bands (ev):

   -70.9939 -37.0626 -36.9005 -36.9005  11.4195  14.2741  14.2741  15.7912
    15.7912  16.6248  33.5672  33.5672

          k =-0.2222 0.7778-0.3333 (   487 PWs)   bands (ev):

   -70.9528 -37.1410 -37.0792 -36.9304  13.5590  13.5596  14.2837  16.1427
    16.6295  21.5855  25.4039  26.5871

          k =-0.3333 0.3333 0.2222 (   491 PWs)   bands (ev):

   -70.9776 -37.1294 -36.9532 -36.9045  12.7656  13.9865  14.2481  15.8629
    15.9099  17.9852  29.0039  31.9747

          k = 0.5556-0.5556 0.2222 (   493 PWs)   bands (ev):

   -70.9669 -37.1617 -36.9981 -36.9074  12.9697  13.8357  15.1478  15.9549
    15.9569  19.8581  24.9130  31.1211

          k = 0.5556-0.6667 0.3333 (   492 PWs)   bands (ev):

   -70.9675 -37.1366 -36.9954 -36.9328  13.5031  13.8646  14.2789  15.9401
    15.9921  20.0874  27.3399  28.0563

          k = 0.4444-0.5556 0.3333 (   488 PWs)   bands (ev):

   -70.9633 -37.1172 -37.0383 -36.9393  13.4995  13.8824  14.5337  15.9960
    16.0196  22.3824  24.3776  27.3191

          k = 0.0000 0.0000 0.4444 (   490 PWs)   bands (ev):

   -70.9803 -37.0207 -36.9672 -36.9672  12.0060  14.3590  15.1605  15.1605
    15.7992  16.5690  34.3746  34.5870

          k = 0.0000-0.1111 0.5556 (   488 PWs)   bands (ev):

   -70.9618 -37.0992 -37.0080 -36.9759  12.8569  13.7729  15.1281  15.5254
    16.5209  17.7988  29.6957  32.4052

          k = 0.0000-0.2222 0.6667 (   486 PWs)   bands (ev):

   -70.9497 -37.1600 -37.0342 -36.9716  12.9712  13.6482  15.0060  15.6610
    17.1865  20.3391  25.3200  31.1127

          k =-0.1111-0.1111 0.6667 (   481 PWs)   bands (ev):

   -70.9471 -37.1307 -37.0582 -36.9906  13.1257  13.2842  15.1754  16.0123
    16.8491  20.1546  27.9346  28.4345

          k =-0.1111 0.7778-0.2222 (   479 PWs)   bands (ev):

   -70.9413 -37.1436 -37.0844 -36.9897  13.0405  13.2448  15.0831  16.2794
    17.0316  22.8805  24.6444  27.6386

          k = 0.5556-0.5556 0.4444 (   489 PWs)   bands (ev):

   -70.9635 -37.0895 -37.0036 -37.0036  13.8936  13.8936  14.1763  15.9796
    15.9796  22.8702  26.4627  26.4627

          k = 0.0000 0.0000 0.6667 (   482 PWs)   bands (ev):

   -70.9448 -37.0909 -37.0503 -37.0503  12.9329  13.1999  15.9432  15.9432
    16.5622  19.6115  30.0184  30.0184

          k = 0.0000-0.1111 0.7778 (   480 PWs)   bands (ev):

   -70.9339 -37.1304 -37.0786 -37.0539  12.7838  12.8558  16.0952  16.3015
    17.0960  22.4731  26.4780  28.5503

          k =-0.1111 0.8889-0.1111 (   478 PWs)   bands (ev):

   -70.9287 -37.1172 -37.1172 -37.0614  12.6548  12.6548  16.1944  16.9743
    16.9743  25.3896  25.3896  26.2998

          k = 0.0000 0.0000 0.8889 (   486 PWs)   bands (ev):

   -70.9240 -37.1132 -37.1074 -37.1074  12.4581  12.4593  16.9461  16.9461
    17.0703  24.9150  26.9517  26.9517

 ------ SPIN DOWN ----------


          k = 0.0000 0.0000 0.0000 (   459 PWs)   bands (ev):

   -68.4436 -34.3300 -34.3300 -34.3300   8.9634  16.5603  16.5603  16.5603
    18.8108  18.8108  41.0281  41.0281

          k = 0.0000-0.1111 0.1111 (   487 PWs)   bands (ev):

   -68.4367 -34.3771 -34.3465 -34.3323   9.4500  16.4117  16.5285  16.8331
    18.6551  18.8229  38.5526  40.3388

          k = 0.0000-0.2222 0.2222 (   491 PWs)   bands (ev):

   -68.4172 -34.4892 -34.3845 -34.3328  10.8056  16.0491  16.3706  17.5715
    18.4468  18.8707  33.9357  38.2247

          k = 0.0000-0.3333 0.3333 (   489 PWs)   bands (ev):

   -68.3947 -34.6149 -34.4266 -34.3329  12.5383  15.6584  16.3631  18.4641
    18.5180  18.9571  29.2352  36.1592

          k = 0.0000-0.4444 0.4444 (   488 PWs)   bands (ev):

   -68.3800 -34.6961 -34.4540 -34.3326  13.4834  15.4145  17.2798  18.5551
    19.0337  19.2200  25.6943  34.9892

          k =-0.1111-0.1111 0.2222 (   489 PWs)   bands (ev):

   -68.4231 -34.4542 -34.3638 -34.3430  10.3781  16.2282  16.3145  17.3886
    18.4339  18.8901  36.0837  37.1903

          k =-0.1111-0.2222 0.3333 (   488 PWs)   bands (ev):

   -68.4020 -34.5637 -34.4085 -34.3476  11.9942  15.8529  16.0802  18.3083
    18.3472  19.0096  31.7195  34.8202

          k =-0.1111-0.3333 0.4444 (   488 PWs)   bands (ev):

   -68.3835 -34.6563 -34.4532 -34.3485  13.4528  15.5272  16.3143  18.4504
    18.9843  19.5540  27.3628  33.3849

          k =-0.1111 0.5556-0.4444 (   488 PWs)   bands (ev):

   -68.3761 -34.6925 -34.4707 -34.3487  13.8286  15.4091  16.8623  18.5316
    19.0775  20.3080  25.1137  32.8630

          k =-0.2222-0.2222 0.4444 (   488 PWs)   bands (ev):

   -68.3848 -34.6248 -34.4580 -34.3657  13.5309  15.5874  15.8054  18.3372
    18.9373  19.8183  29.7912  30.3464

          k =-0.2222 0.6667-0.4444 (   484 PWs)   bands (ev):

   -68.3735 -34.6489 -34.5109 -34.3718  14.4085  15.4286  15.9510  18.5076
    18.9453  21.6231  26.0778  29.1150

          k =-0.3333 0.6667-0.3333 (   481 PWs)   bands (ev):

   -68.3695 -34.5907 -34.5907 -34.3791  14.9227  15.5218  15.5218  18.7299
    18.7299  24.4602  24.4602  26.6300

          k = 0.0000 0.0000 0.2222 (   490 PWs)   bands (ev):

   -68.4294 -34.3889 -34.3623 -34.3623   9.9275  16.5470  16.5470  16.8387
    18.2694  19.0009  37.8267  39.6837

          k = 0.0000-0.1111 0.3333 (   486 PWs)   bands (ev):

   -68.4102 -34.4873 -34.4004 -34.3681  11.2418  16.2991  16.4605  17.5052
    17.8713  19.1389  34.2726  37.3585

          k = 0.0000-0.2222 0.4444 (   478 PWs)   bands (ev):

   -68.3881 -34.6068 -34.4427 -34.3655  12.9174  15.9487  16.2357  17.9962
    18.4633  19.3324  29.5516  35.6936

          k = 0.0000-0.3333 0.5556 (   486 PWs)   bands (ev):

   -68.3741 -34.6846 -34.4711 -34.3642  13.8404  15.7254  16.5118  18.2047
    19.1838  20.0478  25.8206  34.6698

          k =-0.1111-0.1111 0.4444 (   480 PWs)   bands (ev):

   -68.3902 -34.5652 -34.4449 -34.3891  12.7157  16.1151  16.3203  17.6367
    18.2169  19.4020  32.1708  32.7553

          k =-0.1111-0.2222 0.5556 (   485 PWs)   bands (ev):

   -68.3729 -34.6404 -34.4938 -34.3920  14.0629  15.7450  16.1686  17.9254
    18.8354  20.4035  27.8832  31.0555

          k =-0.1111 0.6667-0.3333 (   486 PWs)   bands (ev):

   -68.3660 -34.6703 -34.5137 -34.3917  14.4447  15.8905  15.9616  18.0706
    19.0619  21.8284  25.2185  30.4989

          k =-0.2222 0.2222 0.2222 (   489 PWs)   bands (ev):

   -68.4074 -34.5470 -34.3671 -34.3671  11.6465  15.8678  15.8678  18.3603
    18.7169  18.7169  34.0084  34.0084

          k =-0.2222 0.7778-0.3333 (   487 PWs)   bands (ev):

   -68.3628 -34.6337 -34.5647 -34.3999  15.0324  15.3852  15.8794  18.2684
    18.7624  22.8273  26.3819  27.3255

          k =-0.3333 0.3333 0.2222 (   491 PWs)   bands (ev):

   -68.3896 -34.6213 -34.4252 -34.3715  13.3026  15.4814  15.6500  18.6855
    18.9345  19.6130  29.7021  32.4175

          k = 0.5556-0.5556 0.2222 (   493 PWs)   bands (ev):

   -68.3780 -34.6574 -34.4748 -34.3746  14.1473  15.2689  16.1364  18.7391
    19.0492  21.0719  25.9172  31.5434

          k = 0.5556-0.6667 0.3333 (   492 PWs)   bands (ev):

   -68.3786 -34.6292 -34.4723 -34.4028  14.5369  15.2918  15.4296  18.8250
    19.0175  21.3973  28.0720  28.7110

          k = 0.4444-0.5556 0.3333 (   488 PWs)   bands (ev):

   -68.3742 -34.6078 -34.5200 -34.4099  14.7682  15.2306  15.6877  18.8941
    19.0346  23.3140  25.3458  27.9886

          k = 0.0000 0.0000 0.4444 (   490 PWs)   bands (ev):

   -68.3926 -34.5016 -34.4403 -34.4403  12.4049  16.7738  16.7738  16.9078
    17.5587  19.4178  35.0136  35.1052

          k = 0.0000-0.1111 0.5556 (   488 PWs)   bands (ev):

   -68.3725 -34.5878 -34.4853 -34.4504  13.7880  15.9790  16.7340  17.3694
    18.3447  19.9796  30.4254  32.9254

          k = 0.0000-0.2222 0.6667 (   486 PWs)   bands (ev):

   -68.3594 -34.6548 -34.5144 -34.4456  14.5788  15.5558  16.5958  17.6613
    19.0930  21.6938  26.2876  31.5931

          k =-0.1111-0.1111 0.6667 (   481 PWs)   bands (ev):

   -68.3566 -34.6222 -34.5411 -34.4666  14.6504  15.3839  16.8117  17.8170
    18.7638  21.5793  28.7458  29.0397

          k =-0.1111 0.7778-0.2222 (   479 PWs)   bands (ev):

   -68.3503 -34.6362 -34.5702 -34.4656  14.9612  15.1567  16.6509  18.1465
    18.9511  23.9095  25.5883  28.2886

          k = 0.5556-0.5556 0.4444 (   489 PWs)   bands (ev):

   -68.3745 -34.5767 -34.4816 -34.4816  15.1793  15.1793  15.2629  19.0604
    19.0604  23.8142  27.1630  27.1630

          k = 0.0000 0.0000 0.6667 (   482 PWs)   bands (ev):

   -68.3543 -34.5786 -34.5322 -34.5322  14.4469  15.4201  17.6134  17.6134
    18.4030  21.1037  30.4996  30.4996

          k = 0.0000-0.1111 0.7778 (   480 PWs)   bands (ev):

   -68.3424 -34.6213 -34.5634 -34.5367  14.6877  14.9029  17.8060  18.0449
    18.9925  23.4315  27.1422  28.9620

          k =-0.1111 0.8889-0.1111 (   478 PWs)   bands (ev):

   -68.3366 -34.6064 -34.6064 -34.5446  14.6615  14.6615  17.8976  18.8425
    18.8425  26.0569  26.0569  26.7949

          k = 0.0000 0.0000 0.8889 (   486 PWs)   bands (ev):

   -68.3316 -34.6018 -34.5951 -34.5951  14.4476  14.4978  18.7981  18.7981
    18.9680  25.4439  27.2468  27.2468

     the Fermi energy is    16.9210 ev

!    total energy              =    -329.26097277 Ry
     Harris-Foulkes estimate   =    -329.26097273 Ry
     estimated scf accuracy    <          8.6E-09 Ry

     total all-electron energy =     -2545.557508 Ry

     The total energy is the sum of the following terms:

     one-electron contribution =    -115.05637632 Ry
     hartree contribution      =      67.36146010 Ry
     xc contribution           =     -34.78779239 Ry
     ewald contribution        =    -170.63072585 Ry
     one-center paw contrib.   =     -76.14935238 Ry
     smearing contrib. (-TS)   =       0.00181406 Ry

     total magnetization       =     2.14 Bohr mag/cell
     absolute magnetization    =     2.26 Bohr mag/cell

     convergence has been achieved in  16 iterations

     Forces acting on atoms (Ry/au):


     negative rho (up, down):  0.000E+00 1.827E-04
     atom    1 type  1   force =     0.00000000    0.00000000    0.00000000

     Total force =     0.000000     Total SCF correction =     0.000000


     entering subroutine stress ...


     negative rho (up, down):  0.000E+00 1.827E-04
          total   stress  (Ry/bohr**3)                   (kbar)     P= -193.31
  -0.00131409  -0.00000000   0.00000000       -193.31     -0.00      0.00
  -0.00000000  -0.00131409  -0.00000000         -0.00   -193.31     -0.00
   0.00000000  -0.00000000  -0.00131409          0.00     -0.00   -193.31


     Writing output data file Fe_bcc.save

     init_run     :      1.59s CPU      1.65s WALL (       1 calls)
     electrons    :     32.02s CPU     32.43s WALL (       1 calls)
     forces       :      0.13s CPU      0.13s WALL (       1 calls)
     stress       :      0.47s CPU      0.48s WALL (       1 calls)

     Called by init_run:
     wfcinit      :      0.54s CPU      0.55s WALL (       1 calls)
     potinit      :      0.51s CPU      0.53s WALL (       1 calls)

     Called by electrons:
     c_bands      :     19.98s CPU     20.09s WALL (      16 calls)
     sum_band     :      3.70s CPU      3.78s WALL (      16 calls)
     v_of_rho     :      0.37s CPU      0.38s WALL (      17 calls)
     newd         :      0.27s CPU      0.28s WALL (      17 calls)
     mix_rho      :      0.05s CPU      0.05s WALL (      16 calls)

     Called by c_bands:
     init_us_2    :      0.43s CPU      0.44s WALL (    2450 calls)
     cegterg      :     19.13s CPU     19.22s WALL (    1120 calls)

     Called by *egterg:
     h_psi        :     16.18s CPU     16.42s WALL (    3581 calls)
     s_psi        :      0.45s CPU      0.36s WALL (    3581 calls)
     g_psi        :      0.09s CPU      0.10s WALL (    2391 calls)
     cdiaghg      :      1.06s CPU      1.07s WALL (    3511 calls)

     Called by h_psi:
     add_vuspsi   :      0.47s CPU      0.40s WALL (    3581 calls)

     General routines
     calbec       :      0.48s CPU      0.49s WALL (    4841 calls)
     fft          :      0.20s CPU      0.20s WALL (     561 calls)
     ffts         :      0.02s CPU      0.02s WALL (      66 calls)
     fftw         :     16.49s CPU     16.77s WALL (   80152 calls)
     interpolate  :      0.05s CPU      0.05s WALL (      66 calls)
     davcio       :      0.00s CPU      0.00s WALL (      70 calls)


     PAW routines
     PAW_pot      :      8.13s CPU      8.35s WALL (      17 calls)
     PAW_symme    :      0.02s CPU      0.02s WALL (      33 calls)

     PWSCF        :    34.70s CPU        35.25s WALL


   This run was terminated on:  10:26:28  11May2015            

=------------------------------------------------------------------------------=
   JOB DONE.
=------------------------------------------------------------------------------=
