
     Program PWSCF v.5.1 starts on  1May2015 at 15:52: 4 

     This program is part of the open-source Quantum ESPRESSO suite
     for quantum simulation of materials; please cite
         "P. Giannozzi et al., J. Phys.:Condens. Matter 21 395502 (2009);
          URL http://www.quantum-espresso.org", 
     in publications or presentations arising from this work. More details at
     http://www.quantum-espresso.org/quote

     Parallel version (MPI), running on     1 processors
     Waiting for input...
     Reading input from standard input
Warning: card &IONS ignored
Warning: card / ignored
Warning: card &CELL ignored
Warning: card / ignored

     Current dimensions of program PWSCF are:
     Max number of different atomic species (ntypx) = 10
     Max number of k-points (npk) =  40000
     Max angular momentum in pseudopotentials (lmaxx) =  3
               file Si.pz-n-kjpaw_psl.0.1.UPF: wavefunction(s)  3S renormalized

     Subspace diagonalization in iterative solution of the eigenvalue problem:
     a serial algorithm will be used

 
     G-vector sticks info
     --------------------
     sticks:   dense  smooth     PW     G-vecs:    dense   smooth      PW
     Sum         733     733    223                12939    12939    2229
 


     bravais-lattice index     =            2
     lattice parameter (alat)  =      10.2600  a.u.
     unit-cell volume          =     270.0114 (a.u.)^3
     number of atoms/cell      =            2
     number of atomic types    =            1
     number of electrons       =         8.00
     number of Kohn-Sham states=            4
     kinetic-energy cutoff     =      50.0000  Ry
     charge density cutoff     =     200.0000  Ry
     convergence threshold     =      1.0E-06
     mixing beta               =       0.7000
     number of iterations used =            8  plain     mixing
     Exchange-correlation      =  SLA  PZ   NOGX NOGC ( 1  1  0  0 0)

     celldm(1)=  10.260000  celldm(2)=   0.000000  celldm(3)=   0.000000
     celldm(4)=   0.000000  celldm(5)=   0.000000  celldm(6)=   0.000000

     crystal axes: (cart. coord. in units of alat)
               a(1) = (  -0.500000   0.000000   0.500000 )  
               a(2) = (   0.000000   0.500000   0.500000 )  
               a(3) = (  -0.500000   0.500000   0.000000 )  

     reciprocal axes: (cart. coord. in units 2 pi/alat)
               b(1) = ( -1.000000 -1.000000  1.000000 )  
               b(2) = (  1.000000  1.000000  1.000000 )  
               b(3) = ( -1.000000  1.000000 -1.000000 )  


     PseudoPot. # 1 for Si read from file:
     ./Si.pz-n-kjpaw_psl.0.1.UPF
     MD5 check sum: 39d85f6d7c0899aba58824f54593099f
     Pseudo is Projector augmented-wave + core cor, Zval =  4.0
     Generated using "atomic" code by A. Dal Corso  v.5.0.2 svn rev. 9415
     Shape of augmentation charge: PSQ
     Using radial grid of 1141 points,  4 beta functions with: 
                l(1) =   0
                l(2) =   0
                l(3) =   1
                l(4) =   1
     Q(r) pseudized with 0 coefficients 


     atomic species   valence    mass     pseudopotential
        Si             4.00    28.05500     Si( 1.00)

     48 Sym. Ops., with inversion, found (24 have fractional translation)



   Cartesian axes

     site n.     atom                  positions (alat units)
         1           Si  tau(   1) = (   0.0000000   0.0000000   0.0000000  )
         2           Si  tau(   2) = (  -0.2500000   0.2500000   0.2500000  )

     number of k points=    35
                       cart. coord. in units 2pi/alat
        k(    1) = (   0.0000000   0.0000000   0.0000000), wk =   0.0027435
        k(    2) = (  -0.1111111   0.1111111  -0.1111111), wk =   0.0219479
        k(    3) = (  -0.2222222   0.2222222  -0.2222222), wk =   0.0219479
        k(    4) = (  -0.3333333   0.3333333  -0.3333333), wk =   0.0219479
        k(    5) = (  -0.4444444   0.4444444  -0.4444444), wk =   0.0219479
        k(    6) = (   0.0000000   0.2222222   0.0000000), wk =   0.0164609
        k(    7) = (  -0.1111111   0.3333333  -0.1111111), wk =   0.0658436
        k(    8) = (  -0.2222222   0.4444444  -0.2222222), wk =   0.0658436
        k(    9) = (  -0.3333333   0.5555556  -0.3333333), wk =   0.0658436
        k(   10) = (   0.5555556  -0.3333333   0.5555556), wk =   0.0658436
        k(   11) = (   0.4444444  -0.2222222   0.4444444), wk =   0.0658436
        k(   12) = (   0.3333333  -0.1111111   0.3333333), wk =   0.0658436
        k(   13) = (   0.2222222  -0.0000000   0.2222222), wk =   0.0329218
        k(   14) = (   0.0000000   0.4444444   0.0000000), wk =   0.0164609
        k(   15) = (  -0.1111111   0.5555556  -0.1111111), wk =   0.0658436
        k(   16) = (  -0.2222222   0.6666667  -0.2222222), wk =   0.0658436
        k(   17) = (   0.6666667  -0.2222222   0.6666667), wk =   0.0658436
        k(   18) = (   0.5555556  -0.1111111   0.5555556), wk =   0.0658436
        k(   19) = (   0.4444444   0.0000000   0.4444444), wk =   0.0329218
        k(   20) = (   0.0000000   0.6666667   0.0000000), wk =   0.0164609
        k(   21) = (  -0.1111111   0.7777778  -0.1111111), wk =   0.0658436
        k(   22) = (   0.7777778  -0.1111111   0.7777778), wk =   0.0658436
        k(   23) = (   0.6666667  -0.0000000   0.6666667), wk =   0.0329218
        k(   24) = (   0.0000000   0.8888889   0.0000000), wk =   0.0164609
        k(   25) = (   0.8888889   0.0000000   0.8888889), wk =   0.0329218
        k(   26) = (  -0.2222222   0.4444444   0.0000000), wk =   0.0658436
        k(   27) = (  -0.3333333   0.5555556  -0.1111111), wk =   0.1316872
        k(   28) = (   0.5555556  -0.3333333   0.7777778), wk =   0.1316872
        k(   29) = (  -0.2222222   0.6666667   0.0000000), wk =   0.0658436
        k(   30) = (   0.6666667  -0.2222222   0.8888889), wk =   0.1316872
        k(   31) = (   0.5555556  -0.1111111   0.7777778), wk =   0.1316872
        k(   32) = (   0.4444444   0.0000000   0.6666667), wk =   0.0658436
        k(   33) = (   0.7777778  -0.1111111   1.0000000), wk =   0.0658436
        k(   34) = (   0.6666667  -0.0000000   0.8888889), wk =   0.0658436
        k(   35) = (   0.5555556  -0.1111111   1.0000000), wk =   0.0658436

     Dense  grid:    12939 G-vectors     FFT dimensions: (  36,  36,  36)

     Largest allocated arrays     est. size (Mb)     dimensions
        Kohn-Sham Wavefunctions         0.10 Mb     (    1639,    4)
        NL pseudopotentials             0.40 Mb     (    1639,   16)
        Each V/rho on FFT grid          0.71 Mb     (   46656)
        Each G-vector array             0.10 Mb     (   12939)
        G-vector shells                 0.00 Mb     (     180)
     Largest temporary arrays     est. size (Mb)     dimensions
        Auxiliary wavefunctions         0.40 Mb     (    1639,   16)
        Each subspace H/S matrix        0.00 Mb     (      16,   16)
        Each <psi_i|beta_j> matrix      0.00 Mb     (      16,    4)
        Arrays for rho mixing           5.70 Mb     (   46656,    8)

     Initial potential from superposition of free atoms

     starting charge    7.99900, renormalised to    8.00000
     Starting wfc are    8 randomized atomic wfcs
     Checking if some PAW data can be deallocated... 

     total cpu time spent up to now is        0.8 secs

     per-process dynamical memory:    14.2 Mb

     Self-consistent Calculation

     iteration #  1     ecut=    50.00 Ry     beta=0.70
     Davidson diagonalization with overlap
     ethr =  1.00E-02,  avg # of iterations =  2.0

     Threshold (ethr) on eigenvalues was too large:
     Diagonalizing with lowered threshold

     Davidson diagonalization with overlap
     ethr =  7.44E-04,  avg # of iterations =  1.0

     total cpu time spent up to now is        2.0 secs

     total energy              =     -89.28563222 Ry
     Harris-Foulkes estimate   =     -89.30635053 Ry
     estimated scf accuracy    <       0.05891680 Ry

     iteration #  2     ecut=    50.00 Ry     beta=0.70
     Davidson diagonalization with overlap
     ethr =  7.36E-04,  avg # of iterations =  1.0

     total cpu time spent up to now is        2.6 secs

     total energy              =     -89.28857528 Ry
     Harris-Foulkes estimate   =     -89.28898397 Ry
     estimated scf accuracy    <       0.00196852 Ry

     iteration #  3     ecut=    50.00 Ry     beta=0.70
     Davidson diagonalization with overlap
     ethr =  2.46E-05,  avg # of iterations =  2.6

     total cpu time spent up to now is        3.3 secs

     total energy              =     -89.28902986 Ry
     Harris-Foulkes estimate   =     -89.28907371 Ry
     estimated scf accuracy    <       0.00007366 Ry

     iteration #  4     ecut=    50.00 Ry     beta=0.70
     Davidson diagonalization with overlap
     ethr =  9.21E-07,  avg # of iterations =  2.1

     total cpu time spent up to now is        4.0 secs

     total energy              =     -89.28905136 Ry
     Harris-Foulkes estimate   =     -89.28905675 Ry
     estimated scf accuracy    <       0.00001010 Ry

     iteration #  5     ecut=    50.00 Ry     beta=0.70
     Davidson diagonalization with overlap
     ethr =  1.26E-07,  avg # of iterations =  2.1

     total cpu time spent up to now is        4.8 secs

     End of self-consistent calculation

          k = 0.0000 0.0000 0.0000 (  1639 PWs)   bands (ev):

    -5.9390   6.0382   6.0382   6.0382

          k =-0.1111 0.1111-0.1111 (  1606 PWs)   bands (ev):

    -5.7772   4.6765   5.7994   5.7994

          k =-0.2222 0.2222-0.2222 (  1606 PWs)   bands (ev):

    -5.3018   2.5931   5.3749   5.3749

          k =-0.3333 0.3333-0.3333 (  1609 PWs)   bands (ev):

    -4.5588   0.6773   5.0376   5.0376

          k =-0.4444 0.4444-0.4444 (  1610 PWs)   bands (ev):

    -3.7625  -0.7236   4.8624   4.8624

          k = 0.0000 0.2222 0.0000 (  1599 PWs)   bands (ev):

    -5.7229   4.9079   5.3563   5.3563

          k =-0.1111 0.3333-0.1111 (  1600 PWs)   bands (ev):

    -5.3500   3.2194   4.8819   5.0132

          k =-0.2222 0.4444-0.2222 (  1611 PWs)   bands (ev):

    -4.6875   1.3082   4.5028   4.5776

          k =-0.3333 0.5556-0.3333 (  1613 PWs)   bands (ev):

    -3.8572  -0.2869   4.0654   4.4968

          k = 0.5556-0.3333 0.5556 (  1614 PWs)   bands (ev):

    -3.4747  -0.8630   3.8054   4.6384

          k = 0.4444-0.2222 0.4444 (  1612 PWs)   bands (ev):

    -4.1373   0.1914   3.7705   4.9704

          k = 0.3333-0.1111 0.3333 (  1607 PWs)   bands (ev):

    -4.9392   1.9254   4.0026   5.4213

          k = 0.2222-0.0000 0.2222 (  1600 PWs)   bands (ev):

    -5.5101   3.6953   4.6576   5.8155

          k = 0.0000 0.4444 0.0000 (  1615 PWs)   bands (ev):

    -5.0806   2.9987   4.3590   4.3590

          k =-0.1111 0.5556-0.1111 (  1614 PWs)   bands (ev):

    -4.5101   1.6668   3.7218   4.0167

          k =-0.2222 0.6667-0.2222 (  1616 PWs)   bands (ev):

    -3.7082   0.1920   2.9716   3.9195

          k = 0.6667-0.2222 0.6667 (  1601 PWs)   bands (ev):

    -3.0480  -0.7559   2.4477   4.0760

          k = 0.5556-0.1111 0.5556 (  1610 PWs)   bands (ev):

    -3.4634  -0.1738   2.2637   4.4590

          k = 0.4444 0.0000 0.4444 (  1614 PWs)   bands (ev):

    -4.2897   1.0780   2.6493   4.9837

          k = 0.0000 0.6667 0.0000 (  1624 PWs)   bands (ev):

    -4.0320   1.0124   3.6146   3.6146

          k =-0.1111 0.7778-0.1111 (  1621 PWs)   bands (ev):

    -3.2917  -0.0365   2.8734   3.4575

          k = 0.7778-0.1111 0.7778 (  1619 PWs)   bands (ev):

    -2.4933  -0.9352   1.9542   3.5656

          k = 0.6667-0.0000 0.6667 (  1612 PWs)   bands (ev):

    -2.6660  -0.7463   1.5862   3.9225

          k = 0.0000 0.8889 0.0000 (  1608 PWs)   bands (ev):

    -2.6163  -0.9007   3.2286   3.2286

          k = 0.8889 0.0000 0.8889 (  1612 PWs)   bands (ev):

    -1.8414  -1.6738   2.5962   3.2664

          k =-0.2222 0.4444 0.0000 (  1599 PWs)   bands (ev):

    -4.8794   2.2298   3.6480   4.8671

          k =-0.3333 0.5556-0.1111 (  1611 PWs)   bands (ev):

    -4.1418   0.7376   3.0365   4.4266

          k = 0.5556-0.3333 0.7778 (  1604 PWs)   bands (ev):

    -3.3406  -0.5571   2.8435   4.1015

          k =-0.2222 0.6667 0.0000 (  1617 PWs)   bands (ev):

    -3.8569   0.7094   2.9337   3.6347

          k = 0.6667-0.2222 0.8889 (  1621 PWs)   bands (ev):

    -3.0269  -0.3751   2.2606   3.3244

          k = 0.5556-0.1111 0.7778 (  1614 PWs)   bands (ev):

    -2.6582  -0.8036   1.8695   3.4377

          k = 0.4444 0.0000 0.6667 (  1614 PWs)   bands (ev):

    -3.3630   0.0003   2.0172   3.8784

          k = 0.7778-0.1111 1.0000 (  1627 PWs)   bands (ev):

    -2.4986  -0.9152   2.6462   2.8590

          k = 0.6667-0.0000 0.8889 (  1618 PWs)   bands (ev):

    -1.9719  -1.3772   1.9091   2.9470

          k = 0.5556-0.1111 1.0000 (  1612 PWs)   bands (ev):

    -2.2189  -1.0603   1.9481   2.5978

     highest occupied level (ev):     6.0382

!    total energy              =     -89.28905376 Ry
     Harris-Foulkes estimate   =     -89.28905389 Ry
     estimated scf accuracy    <       0.00000018 Ry

     total all-electron energy =     -1156.155182 Ry

     The total energy is the sum of the following terms:

     one-electron contribution =       5.75895975 Ry
     hartree contribution      =       1.09308594 Ry
     xc contribution           =     -12.16572021 Ry
     ewald contribution        =     -16.80092961 Ry
     one-center paw contrib.   =     -67.17444963 Ry

     convergence has been achieved in   5 iterations

     Forces acting on atoms (Ry/au):

     atom    1 type  1   force =    -0.00000000   -0.00000000   -0.00000000
     atom    2 type  1   force =     0.00000000    0.00000000    0.00000000

     Total force =     0.000000     Total SCF correction =     0.000000


     entering subroutine stress ...

          total   stress  (Ry/bohr**3)                   (kbar)     P=  -15.74
  -0.00010699  -0.00000000  -0.00000000        -15.74     -0.00     -0.00
  -0.00000000  -0.00010699   0.00000000         -0.00    -15.74      0.00
  -0.00000000   0.00000000  -0.00010699         -0.00      0.00    -15.74


     Writing output data file pwscf.save
 
     init_run     :      0.63s CPU      0.63s WALL (       1 calls)
     electrons    :      3.98s CPU      4.01s WALL (       1 calls)
     forces       :      0.05s CPU      0.05s WALL (       1 calls)
     stress       :      0.21s CPU      0.21s WALL (       1 calls)

     Called by init_run:
     wfcinit      :      0.39s CPU      0.39s WALL (       1 calls)
     potinit      :      0.02s CPU      0.02s WALL (       1 calls)

     Called by electrons:
     c_bands      :      3.15s CPU      3.17s WALL (       6 calls)
     sum_band     :      0.70s CPU      0.70s WALL (       6 calls)
     v_of_rho     :      0.02s CPU      0.02s WALL (       6 calls)
     newd         :      0.05s CPU      0.05s WALL (       6 calls)
     mix_rho      :      0.01s CPU      0.01s WALL (       6 calls)

     Called by c_bands:
     init_us_2    :      0.14s CPU      0.14s WALL (     525 calls)
     cegterg      :      2.92s CPU      2.93s WALL (     210 calls)

     Called by *egterg:
     h_psi        :      3.07s CPU      3.10s WALL (     624 calls)
     s_psi        :      0.04s CPU      0.03s WALL (     624 calls)
     g_psi        :      0.03s CPU      0.03s WALL (     379 calls)
     cdiaghg      :      0.03s CPU      0.02s WALL (     554 calls)

     Called by h_psi:
     add_vuspsi   :      0.04s CPU      0.03s WALL (     624 calls)

     General routines
     calbec       :      0.05s CPU      0.07s WALL (     904 calls)
     fft          :      0.04s CPU      0.04s WALL (      46 calls)
     fftw         :      3.24s CPU      3.23s WALL (    5824 calls)
     davcio       :      0.00s CPU      0.00s WALL (      35 calls)
 
     Parallel routines
     fft_scatter  :      0.21s CPU      0.20s WALL (    5870 calls)

     PAW routines
     PAW_pot      :      0.08s CPU      0.08s WALL (       6 calls)
     PAW_symme    :      0.00s CPU      0.00s WALL (      12 calls)
 
     PWSCF        :     5.06s CPU         5.17s WALL

 
   This run was terminated on:  15:52: 9   1May2015            

=------------------------------------------------------------------------------=
   JOB DONE.
=------------------------------------------------------------------------------=
