
     Program PWSCF v.5.1 starts on  1May2015 at 15:52:30 

     This program is part of the open-source Quantum ESPRESSO suite
     for quantum simulation of materials; please cite
         "P. Giannozzi et al., J. Phys.:Condens. Matter 21 395502 (2009);
          URL http://www.quantum-espresso.org", 
     in publications or presentations arising from this work. More details at
     http://www.quantum-espresso.org/quote

     Parallel version (MPI), running on     1 processors
     Waiting for input...
     Reading input from standard input
Warning: card &IONS ignored
Warning: card / ignored
Warning: card &CELL ignored
Warning: card / ignored

     Current dimensions of program PWSCF are:
     Max number of different atomic species (ntypx) = 10
     Max number of k-points (npk) =  40000
     Max angular momentum in pseudopotentials (lmaxx) =  3
               file Si.pz-n-kjpaw_psl.0.1.UPF: wavefunction(s)  3S renormalized

     Subspace diagonalization in iterative solution of the eigenvalue problem:
     a serial algorithm will be used

 
     G-vector sticks info
     --------------------
     sticks:   dense  smooth     PW     G-vecs:    dense   smooth      PW
     Sum         745     745    223                13371    13371    2229
 


     bravais-lattice index     =            2
     lattice parameter (alat)  =      10.3700  a.u.
     unit-cell volume          =     278.7894 (a.u.)^3
     number of atoms/cell      =            2
     number of atomic types    =            1
     number of electrons       =         8.00
     number of Kohn-Sham states=            4
     kinetic-energy cutoff     =      50.0000  Ry
     charge density cutoff     =     200.0000  Ry
     convergence threshold     =      1.0E-06
     mixing beta               =       0.7000
     number of iterations used =            8  plain     mixing
     Exchange-correlation      =  SLA  PZ   NOGX NOGC ( 1  1  0  0 0)

     celldm(1)=  10.370000  celldm(2)=   0.000000  celldm(3)=   0.000000
     celldm(4)=   0.000000  celldm(5)=   0.000000  celldm(6)=   0.000000

     crystal axes: (cart. coord. in units of alat)
               a(1) = (  -0.500000   0.000000   0.500000 )  
               a(2) = (   0.000000   0.500000   0.500000 )  
               a(3) = (  -0.500000   0.500000   0.000000 )  

     reciprocal axes: (cart. coord. in units 2 pi/alat)
               b(1) = ( -1.000000 -1.000000  1.000000 )  
               b(2) = (  1.000000  1.000000  1.000000 )  
               b(3) = ( -1.000000  1.000000 -1.000000 )  


     PseudoPot. # 1 for Si read from file:
     ./Si.pz-n-kjpaw_psl.0.1.UPF
     MD5 check sum: 39d85f6d7c0899aba58824f54593099f
     Pseudo is Projector augmented-wave + core cor, Zval =  4.0
     Generated using "atomic" code by A. Dal Corso  v.5.0.2 svn rev. 9415
     Shape of augmentation charge: PSQ
     Using radial grid of 1141 points,  4 beta functions with: 
                l(1) =   0
                l(2) =   0
                l(3) =   1
                l(4) =   1
     Q(r) pseudized with 0 coefficients 


     atomic species   valence    mass     pseudopotential
        Si             4.00    28.05500     Si( 1.00)

     48 Sym. Ops., with inversion, found (24 have fractional translation)



   Cartesian axes

     site n.     atom                  positions (alat units)
         1           Si  tau(   1) = (   0.0000000   0.0000000   0.0000000  )
         2           Si  tau(   2) = (  -0.2500000   0.2500000   0.2500000  )

     number of k points=    35
                       cart. coord. in units 2pi/alat
        k(    1) = (   0.0000000   0.0000000   0.0000000), wk =   0.0027435
        k(    2) = (  -0.1111111   0.1111111  -0.1111111), wk =   0.0219479
        k(    3) = (  -0.2222222   0.2222222  -0.2222222), wk =   0.0219479
        k(    4) = (  -0.3333333   0.3333333  -0.3333333), wk =   0.0219479
        k(    5) = (  -0.4444444   0.4444444  -0.4444444), wk =   0.0219479
        k(    6) = (   0.0000000   0.2222222   0.0000000), wk =   0.0164609
        k(    7) = (  -0.1111111   0.3333333  -0.1111111), wk =   0.0658436
        k(    8) = (  -0.2222222   0.4444444  -0.2222222), wk =   0.0658436
        k(    9) = (  -0.3333333   0.5555556  -0.3333333), wk =   0.0658436
        k(   10) = (   0.5555556  -0.3333333   0.5555556), wk =   0.0658436
        k(   11) = (   0.4444444  -0.2222222   0.4444444), wk =   0.0658436
        k(   12) = (   0.3333333  -0.1111111   0.3333333), wk =   0.0658436
        k(   13) = (   0.2222222  -0.0000000   0.2222222), wk =   0.0329218
        k(   14) = (   0.0000000   0.4444444   0.0000000), wk =   0.0164609
        k(   15) = (  -0.1111111   0.5555556  -0.1111111), wk =   0.0658436
        k(   16) = (  -0.2222222   0.6666667  -0.2222222), wk =   0.0658436
        k(   17) = (   0.6666667  -0.2222222   0.6666667), wk =   0.0658436
        k(   18) = (   0.5555556  -0.1111111   0.5555556), wk =   0.0658436
        k(   19) = (   0.4444444   0.0000000   0.4444444), wk =   0.0329218
        k(   20) = (   0.0000000   0.6666667   0.0000000), wk =   0.0164609
        k(   21) = (  -0.1111111   0.7777778  -0.1111111), wk =   0.0658436
        k(   22) = (   0.7777778  -0.1111111   0.7777778), wk =   0.0658436
        k(   23) = (   0.6666667  -0.0000000   0.6666667), wk =   0.0329218
        k(   24) = (   0.0000000   0.8888889   0.0000000), wk =   0.0164609
        k(   25) = (   0.8888889   0.0000000   0.8888889), wk =   0.0329218
        k(   26) = (  -0.2222222   0.4444444   0.0000000), wk =   0.0658436
        k(   27) = (  -0.3333333   0.5555556  -0.1111111), wk =   0.1316872
        k(   28) = (   0.5555556  -0.3333333   0.7777778), wk =   0.1316872
        k(   29) = (  -0.2222222   0.6666667   0.0000000), wk =   0.0658436
        k(   30) = (   0.6666667  -0.2222222   0.8888889), wk =   0.1316872
        k(   31) = (   0.5555556  -0.1111111   0.7777778), wk =   0.1316872
        k(   32) = (   0.4444444   0.0000000   0.6666667), wk =   0.0658436
        k(   33) = (   0.7777778  -0.1111111   1.0000000), wk =   0.0658436
        k(   34) = (   0.6666667  -0.0000000   0.8888889), wk =   0.0658436
        k(   35) = (   0.5555556  -0.1111111   1.0000000), wk =   0.0658436

     Dense  grid:    13371 G-vectors     FFT dimensions: (  36,  36,  36)

     Largest allocated arrays     est. size (Mb)     dimensions
        Kohn-Sham Wavefunctions         0.10 Mb     (    1691,    4)
        NL pseudopotentials             0.41 Mb     (    1691,   16)
        Each V/rho on FFT grid          0.71 Mb     (   46656)
        Each G-vector array             0.10 Mb     (   13371)
        G-vector shells                 0.00 Mb     (     183)
     Largest temporary arrays     est. size (Mb)     dimensions
        Auxiliary wavefunctions         0.41 Mb     (    1691,   16)
        Each subspace H/S matrix        0.00 Mb     (      16,   16)
        Each <psi_i|beta_j> matrix      0.00 Mb     (      16,    4)
        Arrays for rho mixing           5.70 Mb     (   46656,    8)

     Check: negative/imaginary core charge=   -0.000001    0.000000

     Initial potential from superposition of free atoms

     starting charge    7.99900, renormalised to    8.00000
     Starting wfc are    8 randomized atomic wfcs
     Checking if some PAW data can be deallocated... 

     total cpu time spent up to now is        0.8 secs

     per-process dynamical memory:    14.5 Mb

     Self-consistent Calculation

     iteration #  1     ecut=    50.00 Ry     beta=0.70
     Davidson diagonalization with overlap
     ethr =  1.00E-02,  avg # of iterations =  2.0

     Threshold (ethr) on eigenvalues was too large:
     Diagonalizing with lowered threshold

     Davidson diagonalization with overlap
     ethr =  7.05E-04,  avg # of iterations =  1.0

     total cpu time spent up to now is        2.0 secs

     total energy              =     -89.28430406 Ry
     Harris-Foulkes estimate   =     -89.30333100 Ry
     estimated scf accuracy    <       0.05574571 Ry

     iteration #  2     ecut=    50.00 Ry     beta=0.70
     Davidson diagonalization with overlap
     ethr =  6.97E-04,  avg # of iterations =  1.0

     total cpu time spent up to now is        2.6 secs

     total energy              =     -89.28686846 Ry
     Harris-Foulkes estimate   =     -89.28728787 Ry
     estimated scf accuracy    <       0.00197442 Ry

     iteration #  3     ecut=    50.00 Ry     beta=0.70
     Davidson diagonalization with overlap
     ethr =  2.47E-05,  avg # of iterations =  2.6

     total cpu time spent up to now is        3.3 secs

     total energy              =     -89.28728330 Ry
     Harris-Foulkes estimate   =     -89.28732397 Ry
     estimated scf accuracy    <       0.00006773 Ry

     iteration #  4     ecut=    50.00 Ry     beta=0.70
     Davidson diagonalization with overlap
     ethr =  8.47E-07,  avg # of iterations =  2.2

     total cpu time spent up to now is        4.1 secs

     total energy              =     -89.28730336 Ry
     Harris-Foulkes estimate   =     -89.28730826 Ry
     estimated scf accuracy    <       0.00000911 Ry

     iteration #  5     ecut=    50.00 Ry     beta=0.70
     Davidson diagonalization with overlap
     ethr =  1.14E-07,  avg # of iterations =  2.1

     total cpu time spent up to now is        4.8 secs

     End of self-consistent calculation

          k = 0.0000 0.0000 0.0000 (  1687 PWs)   bands (ev):

    -6.0524   5.7088   5.7088   5.7088

          k =-0.1111 0.1111-0.1111 (  1684 PWs)   bands (ev):

    -5.8951   4.3501   5.4778   5.4778

          k =-0.2222 0.2222-0.2222 (  1657 PWs)   bands (ev):

    -5.4329   2.3073   5.0639   5.0639

          k =-0.3333 0.3333-0.3333 (  1658 PWs)   bands (ev):

    -4.7128   0.4395   4.7332   4.7332

          k =-0.4444 0.4444-0.4444 (  1679 PWs)   bands (ev):

    -3.9474  -0.9170   4.5607   4.5607

          k = 0.0000 0.2222 0.0000 (  1691 PWs)   bands (ev):

    -5.8422   4.5455   5.0517   5.0517

          k =-0.1111 0.3333-0.1111 (  1672 PWs)   bands (ev):

    -5.4797   2.9041   4.5902   4.7011

          k =-0.2222 0.4444-0.2222 (  1665 PWs)   bands (ev):

    -4.8367   1.0446   4.1998   4.2918

          k =-0.3333 0.5556-0.3333 (  1660 PWs)   bands (ev):

    -4.0353  -0.5021   3.7732   4.2103

          k = 0.5556-0.3333 0.5556 (  1668 PWs)   bands (ev):

    -3.6705  -1.0556   3.5228   4.3455

          k = 0.4444-0.2222 0.4444 (  1658 PWs)   bands (ev):

    -4.3049  -0.0394   3.4943   4.6667

          k = 0.3333-0.1111 0.3333 (  1651 PWs)   bands (ev):

    -5.0808   1.6442   3.7292   5.1045

          k = 0.2222-0.0000 0.2222 (  1667 PWs)   bands (ev):

    -5.6353   3.3691   4.3766   5.4884

          k = 0.0000 0.4444 0.0000 (  1656 PWs)   bands (ev):

    -5.2174   2.6520   4.0828   4.0828

          k =-0.1111 0.5556-0.1111 (  1667 PWs)   bands (ev):

    -4.6631   1.3592   3.4584   3.7486

          k =-0.2222 0.6667-0.2222 (  1660 PWs)   bands (ev):

    -3.8868  -0.0656   2.7245   3.6523

          k = 0.6667-0.2222 0.6667 (  1675 PWs)   bands (ev):

    -3.2545  -0.9748   2.2150   3.8028

          k = 0.5556-0.1111 0.5556 (  1662 PWs)   bands (ev):

    -3.6526  -0.4166   2.0431   4.1734

          k = 0.4444 0.0000 0.4444 (  1660 PWs)   bands (ev):

    -4.4507   0.7942   2.4276   4.6811

          k = 0.0000 0.6667 0.0000 (  1668 PWs)   bands (ev):

    -4.1978   0.7081   3.3575   3.3575

          k =-0.1111 0.7778-0.1111 (  1663 PWs)   bands (ev):

    -3.4793  -0.3138   2.6447   3.2038

          k = 0.7778-0.1111 0.7778 (  1669 PWs)   bands (ev):

    -2.7105  -1.1840   1.7602   3.3080

          k = 0.6667-0.0000 0.6667 (  1668 PWs)   bands (ev):

    -2.8819  -0.9957   1.4053   3.6540

          k = 0.0000 0.8889 0.0000 (  1656 PWs)   bands (ev):

    -2.8218  -1.1543   2.9809   2.9809

          k = 0.8889 0.0000 0.8889 (  1676 PWs)   bands (ev):

    -2.0730  -1.9049   2.3772   3.0174

          k =-0.2222 0.4444 0.0000 (  1665 PWs)   bands (ev):

    -5.0223   1.9184   3.3959   4.5662

          k =-0.3333 0.5556-0.1111 (  1658 PWs)   bands (ev):

    -4.3073   0.4711   2.7901   4.1432

          k = 0.5556-0.3333 0.7778 (  1668 PWs)   bands (ev):

    -3.5363  -0.7763   2.5920   3.8318

          k =-0.2222 0.6667 0.0000 (  1673 PWs)   bands (ev):

    -4.0290   0.4162   2.7018   3.3814

          k = 0.6667-0.2222 0.8889 (  1665 PWs)   bands (ev):

    -3.2268  -0.6357   2.0483   3.0838

          k = 0.5556-0.1111 0.7778 (  1672 PWs)   bands (ev):

    -2.8751  -1.0453   1.6708   3.1922

          k = 0.4444 0.0000 0.6667 (  1659 PWs)   bands (ev):

    -3.5533  -0.2682   1.8172   3.6168

          k = 0.7778-0.1111 1.0000 (  1663 PWs)   bands (ev):

    -2.7102  -1.1717   2.4243   2.6330

          k = 0.6667-0.0000 0.8889 (  1654 PWs)   bands (ev):

    -2.2068  -1.6182   1.7198   2.7172

          k = 0.5556-0.1111 1.0000 (  1657 PWs)   bands (ev):

    -2.4450  -1.3148   1.7558   2.3858

     highest occupied level (ev):     5.7088

!    total energy              =     -89.28730546 Ry
     Harris-Foulkes estimate   =     -89.28730558 Ry
     estimated scf accuracy    <       0.00000016 Ry

     total all-electron energy =     -1156.153434 Ry

     The total energy is the sum of the following terms:

     one-electron contribution =       5.50904427 Ry
     hartree contribution      =       1.12102897 Ry
     xc contribution           =     -12.12628984 Ry
     ewald contribution        =     -16.62271338 Ry
     one-center paw contrib.   =     -67.16837548 Ry

     convergence has been achieved in   5 iterations

     Forces acting on atoms (Ry/au):

     atom    1 type  1   force =    -0.00000000   -0.00000000    0.00000000
     atom    2 type  1   force =     0.00000000   -0.00000000    0.00000000

     Total force =     0.000000     Total SCF correction =     0.000000


     entering subroutine stress ...

          total   stress  (Ry/bohr**3)                   (kbar)     P=  -42.63
  -0.00028981  -0.00000000  -0.00000000        -42.63     -0.00     -0.00
  -0.00000000  -0.00028981   0.00000000         -0.00    -42.63      0.00
  -0.00000000   0.00000000  -0.00028981         -0.00      0.00    -42.63


     Writing output data file pwscf.save
 
     init_run     :      0.63s CPU      0.64s WALL (       1 calls)
     electrons    :      4.01s CPU      4.04s WALL (       1 calls)
     forces       :      0.05s CPU      0.05s WALL (       1 calls)
     stress       :      0.22s CPU      0.22s WALL (       1 calls)

     Called by init_run:
     wfcinit      :      0.39s CPU      0.39s WALL (       1 calls)
     potinit      :      0.02s CPU      0.02s WALL (       1 calls)

     Called by electrons:
     c_bands      :      3.18s CPU      3.20s WALL (       6 calls)
     sum_band     :      0.69s CPU      0.70s WALL (       6 calls)
     v_of_rho     :      0.02s CPU      0.02s WALL (       6 calls)
     newd         :      0.05s CPU      0.05s WALL (       6 calls)
     mix_rho      :      0.01s CPU      0.01s WALL (       6 calls)

     Called by c_bands:
     init_us_2    :      0.18s CPU      0.15s WALL (     525 calls)
     cegterg      :      2.94s CPU      2.96s WALL (     210 calls)

     Called by *egterg:
     h_psi        :      3.10s CPU      3.12s WALL (     627 calls)
     s_psi        :      0.03s CPU      0.03s WALL (     627 calls)
     g_psi        :      0.02s CPU      0.03s WALL (     382 calls)
     cdiaghg      :      0.02s CPU      0.02s WALL (     557 calls)

     Called by h_psi:
     add_vuspsi   :      0.04s CPU      0.03s WALL (     627 calls)

     General routines
     calbec       :      0.08s CPU      0.07s WALL (     907 calls)
     fft          :      0.03s CPU      0.04s WALL (      46 calls)
     fftw         :      3.18s CPU      3.24s WALL (    5814 calls)
     davcio       :      0.00s CPU      0.00s WALL (      35 calls)
 
     Parallel routines
     fft_scatter  :      0.21s CPU      0.20s WALL (    5860 calls)

     PAW routines
     PAW_pot      :      0.08s CPU      0.08s WALL (       6 calls)
     PAW_symme    :      0.00s CPU      0.00s WALL (      12 calls)
 
     PWSCF        :     5.10s CPU         5.21s WALL

 
   This run was terminated on:  15:52:35   1May2015            

=------------------------------------------------------------------------------=
   JOB DONE.
=------------------------------------------------------------------------------=
