
     Program PWSCF v.5.1 starts on  1May2015 at 15:52:14 

     This program is part of the open-source Quantum ESPRESSO suite
     for quantum simulation of materials; please cite
         "P. Giannozzi et al., J. Phys.:Condens. Matter 21 395502 (2009);
          URL http://www.quantum-espresso.org", 
     in publications or presentations arising from this work. More details at
     http://www.quantum-espresso.org/quote

     Parallel version (MPI), running on     1 processors
     Waiting for input...
     Reading input from standard input
Warning: card &IONS ignored
Warning: card / ignored
Warning: card &CELL ignored
Warning: card / ignored

     Current dimensions of program PWSCF are:
     Max number of different atomic species (ntypx) = 10
     Max number of k-points (npk) =  40000
     Max angular momentum in pseudopotentials (lmaxx) =  3
               file Si.pz-n-kjpaw_psl.0.1.UPF: wavefunction(s)  3S renormalized

     Subspace diagonalization in iterative solution of the eigenvalue problem:
     a serial algorithm will be used

 
     G-vector sticks info
     --------------------
     sticks:   dense  smooth     PW     G-vecs:    dense   smooth      PW
     Sum         745     745    223                13107    13107    2229
 


     bravais-lattice index     =            2
     lattice parameter (alat)  =      10.3000  a.u.
     unit-cell volume          =     273.1818 (a.u.)^3
     number of atoms/cell      =            2
     number of atomic types    =            1
     number of electrons       =         8.00
     number of Kohn-Sham states=            4
     kinetic-energy cutoff     =      50.0000  Ry
     charge density cutoff     =     200.0000  Ry
     convergence threshold     =      1.0E-06
     mixing beta               =       0.7000
     number of iterations used =            8  plain     mixing
     Exchange-correlation      =  SLA  PZ   NOGX NOGC ( 1  1  0  0 0)

     celldm(1)=  10.300000  celldm(2)=   0.000000  celldm(3)=   0.000000
     celldm(4)=   0.000000  celldm(5)=   0.000000  celldm(6)=   0.000000

     crystal axes: (cart. coord. in units of alat)
               a(1) = (  -0.500000   0.000000   0.500000 )  
               a(2) = (   0.000000   0.500000   0.500000 )  
               a(3) = (  -0.500000   0.500000   0.000000 )  

     reciprocal axes: (cart. coord. in units 2 pi/alat)
               b(1) = ( -1.000000 -1.000000  1.000000 )  
               b(2) = (  1.000000  1.000000  1.000000 )  
               b(3) = ( -1.000000  1.000000 -1.000000 )  


     PseudoPot. # 1 for Si read from file:
     ./Si.pz-n-kjpaw_psl.0.1.UPF
     MD5 check sum: 39d85f6d7c0899aba58824f54593099f
     Pseudo is Projector augmented-wave + core cor, Zval =  4.0
     Generated using "atomic" code by A. Dal Corso  v.5.0.2 svn rev. 9415
     Shape of augmentation charge: PSQ
     Using radial grid of 1141 points,  4 beta functions with: 
                l(1) =   0
                l(2) =   0
                l(3) =   1
                l(4) =   1
     Q(r) pseudized with 0 coefficients 


     atomic species   valence    mass     pseudopotential
        Si             4.00    28.05500     Si( 1.00)

     48 Sym. Ops., with inversion, found (24 have fractional translation)



   Cartesian axes

     site n.     atom                  positions (alat units)
         1           Si  tau(   1) = (   0.0000000   0.0000000   0.0000000  )
         2           Si  tau(   2) = (  -0.2500000   0.2500000   0.2500000  )

     number of k points=    35
                       cart. coord. in units 2pi/alat
        k(    1) = (   0.0000000   0.0000000   0.0000000), wk =   0.0027435
        k(    2) = (  -0.1111111   0.1111111  -0.1111111), wk =   0.0219479
        k(    3) = (  -0.2222222   0.2222222  -0.2222222), wk =   0.0219479
        k(    4) = (  -0.3333333   0.3333333  -0.3333333), wk =   0.0219479
        k(    5) = (  -0.4444444   0.4444444  -0.4444444), wk =   0.0219479
        k(    6) = (   0.0000000   0.2222222   0.0000000), wk =   0.0164609
        k(    7) = (  -0.1111111   0.3333333  -0.1111111), wk =   0.0658436
        k(    8) = (  -0.2222222   0.4444444  -0.2222222), wk =   0.0658436
        k(    9) = (  -0.3333333   0.5555556  -0.3333333), wk =   0.0658436
        k(   10) = (   0.5555556  -0.3333333   0.5555556), wk =   0.0658436
        k(   11) = (   0.4444444  -0.2222222   0.4444444), wk =   0.0658436
        k(   12) = (   0.3333333  -0.1111111   0.3333333), wk =   0.0658436
        k(   13) = (   0.2222222  -0.0000000   0.2222222), wk =   0.0329218
        k(   14) = (   0.0000000   0.4444444   0.0000000), wk =   0.0164609
        k(   15) = (  -0.1111111   0.5555556  -0.1111111), wk =   0.0658436
        k(   16) = (  -0.2222222   0.6666667  -0.2222222), wk =   0.0658436
        k(   17) = (   0.6666667  -0.2222222   0.6666667), wk =   0.0658436
        k(   18) = (   0.5555556  -0.1111111   0.5555556), wk =   0.0658436
        k(   19) = (   0.4444444   0.0000000   0.4444444), wk =   0.0329218
        k(   20) = (   0.0000000   0.6666667   0.0000000), wk =   0.0164609
        k(   21) = (  -0.1111111   0.7777778  -0.1111111), wk =   0.0658436
        k(   22) = (   0.7777778  -0.1111111   0.7777778), wk =   0.0658436
        k(   23) = (   0.6666667  -0.0000000   0.6666667), wk =   0.0329218
        k(   24) = (   0.0000000   0.8888889   0.0000000), wk =   0.0164609
        k(   25) = (   0.8888889   0.0000000   0.8888889), wk =   0.0329218
        k(   26) = (  -0.2222222   0.4444444   0.0000000), wk =   0.0658436
        k(   27) = (  -0.3333333   0.5555556  -0.1111111), wk =   0.1316872
        k(   28) = (   0.5555556  -0.3333333   0.7777778), wk =   0.1316872
        k(   29) = (  -0.2222222   0.6666667   0.0000000), wk =   0.0658436
        k(   30) = (   0.6666667  -0.2222222   0.8888889), wk =   0.1316872
        k(   31) = (   0.5555556  -0.1111111   0.7777778), wk =   0.1316872
        k(   32) = (   0.4444444   0.0000000   0.6666667), wk =   0.0658436
        k(   33) = (   0.7777778  -0.1111111   1.0000000), wk =   0.0658436
        k(   34) = (   0.6666667  -0.0000000   0.8888889), wk =   0.0658436
        k(   35) = (   0.5555556  -0.1111111   1.0000000), wk =   0.0658436

     Dense  grid:    13107 G-vectors     FFT dimensions: (  36,  36,  36)

     Largest allocated arrays     est. size (Mb)     dimensions
        Kohn-Sham Wavefunctions         0.10 Mb     (    1645,    4)
        NL pseudopotentials             0.40 Mb     (    1645,   16)
        Each V/rho on FFT grid          0.71 Mb     (   46656)
        Each G-vector array             0.10 Mb     (   13107)
        G-vector shells                 0.00 Mb     (     181)
     Largest temporary arrays     est. size (Mb)     dimensions
        Auxiliary wavefunctions         0.40 Mb     (    1645,   16)
        Each subspace H/S matrix        0.00 Mb     (      16,   16)
        Each <psi_i|beta_j> matrix      0.00 Mb     (      16,    4)
        Arrays for rho mixing           5.70 Mb     (   46656,    8)

     Initial potential from superposition of free atoms

     starting charge    7.99900, renormalised to    8.00000
     Starting wfc are    8 randomized atomic wfcs
     Checking if some PAW data can be deallocated... 

     total cpu time spent up to now is        0.8 secs

     per-process dynamical memory:    14.3 Mb

     Self-consistent Calculation

     iteration #  1     ecut=    50.00 Ry     beta=0.70
     Davidson diagonalization with overlap
     ethr =  1.00E-02,  avg # of iterations =  2.0

     Threshold (ethr) on eigenvalues was too large:
     Diagonalizing with lowered threshold

     Davidson diagonalization with overlap
     ethr =  7.29E-04,  avg # of iterations =  1.0

     total cpu time spent up to now is        2.0 secs

     total energy              =     -89.28533836 Ry
     Harris-Foulkes estimate   =     -89.30543667 Ry
     estimated scf accuracy    <       0.05777570 Ry

     iteration #  2     ecut=    50.00 Ry     beta=0.70
     Davidson diagonalization with overlap
     ethr =  7.22E-04,  avg # of iterations =  1.0

     total cpu time spent up to now is        2.6 secs

     total energy              =     -89.28815085 Ry
     Harris-Foulkes estimate   =     -89.28855848 Ry
     estimated scf accuracy    <       0.00196751 Ry

     iteration #  3     ecut=    50.00 Ry     beta=0.70
     Davidson diagonalization with overlap
     ethr =  2.46E-05,  avg # of iterations =  2.6

     total cpu time spent up to now is        3.3 secs

     total energy              =     -89.28858866 Ry
     Harris-Foulkes estimate   =     -89.28863104 Ry
     estimated scf accuracy    <       0.00007119 Ry

     iteration #  4     ecut=    50.00 Ry     beta=0.70
     Davidson diagonalization with overlap
     ethr =  8.90E-07,  avg # of iterations =  2.2

     total cpu time spent up to now is        4.0 secs

     total energy              =     -89.28860944 Ry
     Harris-Foulkes estimate   =     -89.28861452 Ry
     estimated scf accuracy    <       0.00000949 Ry

     iteration #  5     ecut=    50.00 Ry     beta=0.70
     Davidson diagonalization with overlap
     ethr =  1.19E-07,  avg # of iterations =  2.1

     total cpu time spent up to now is        4.8 secs

     End of self-consistent calculation

          k = 0.0000 0.0000 0.0000 (  1639 PWs)   bands (ev):

    -5.9808   5.9169   5.9169   5.9169

          k =-0.1111 0.1111-0.1111 (  1624 PWs)   bands (ev):

    -5.8207   4.5568   5.6810   5.6810

          k =-0.2222 0.2222-0.2222 (  1630 PWs)   bands (ev):

    -5.3501   2.4882   5.2603   5.2603

          k =-0.3333 0.3333-0.3333 (  1634 PWs)   bands (ev):

    -4.6155   0.5900   4.9254   4.9254

          k =-0.4444 0.4444-0.4444 (  1634 PWs)   bands (ev):

    -3.8306  -0.7945   4.7512   4.7512

          k = 0.0000 0.2222 0.0000 (  1631 PWs)   bands (ev):

    -5.7668   4.7750   5.2441   5.2441

          k =-0.1111 0.3333-0.1111 (  1632 PWs)   bands (ev):

    -5.3978   3.1038   4.7745   4.8981

          k =-0.2222 0.4444-0.2222 (  1625 PWs)   bands (ev):

    -4.7424   1.2115   4.3911   4.4723

          k =-0.3333 0.5556-0.3333 (  1627 PWs)   bands (ev):

    -3.9228  -0.3659   3.9577   4.3912

          k = 0.5556-0.3333 0.5556 (  1628 PWs)   bands (ev):

    -3.5469  -0.9336   3.7013   4.5305

          k = 0.4444-0.2222 0.4444 (  1629 PWs)   bands (ev):

    -4.1990   0.1067   3.6687   4.8584

          k = 0.3333-0.1111 0.3333 (  1618 PWs)   bands (ev):

    -4.9913   1.8223   3.9019   5.3046

          k = 0.2222-0.0000 0.2222 (  1614 PWs)   bands (ev):

    -5.5562   3.5757   4.5541   5.6950

          k = 0.0000 0.4444 0.0000 (  1628 PWs)   bands (ev):

    -5.1310   2.8714   4.2572   4.2572

          k =-0.1111 0.5556-0.1111 (  1635 PWs)   bands (ev):

    -4.5664   1.5539   3.6247   3.9179

          k =-0.2222 0.6667-0.2222 (  1626 PWs)   bands (ev):

    -3.7739   0.0974   2.8804   3.8210

          k = 0.6667-0.2222 0.6667 (  1631 PWs)   bands (ev):

    -3.1240  -0.8362   2.3618   3.9754

          k = 0.5556-0.1111 0.5556 (  1625 PWs)   bands (ev):

    -3.5331  -0.2629   2.1823   4.3538

          k = 0.4444 0.0000 0.4444 (  1634 PWs)   bands (ev):

    -4.3490   0.9737   2.5676   4.8722

          k = 0.0000 0.6667 0.0000 (  1640 PWs)   bands (ev):

    -4.0931   0.9005   3.5199   3.5199

          k =-0.1111 0.7778-0.1111 (  1638 PWs)   bands (ev):

    -3.3607  -0.1385   2.7892   3.3640

          k = 0.7778-0.1111 0.7778 (  1634 PWs)   bands (ev):

    -2.5732  -1.0267   1.8828   3.4707

          k = 0.6667-0.0000 0.6667 (  1624 PWs)   bands (ev):

    -2.7455  -0.8380   1.5196   3.8236

          k = 0.0000 0.8889 0.0000 (  1624 PWs)   bands (ev):

    -2.6919  -0.9940   3.1373   3.1373

          k = 0.8889 0.0000 0.8889 (  1636 PWs)   bands (ev):

    -1.9266  -1.7588   2.5155   3.1747

          k =-0.2222 0.4444 0.0000 (  1640 PWs)   bands (ev):

    -4.9320   2.1155   3.5551   4.7562

          k =-0.3333 0.5556-0.1111 (  1624 PWs)   bands (ev):

    -4.2027   0.6398   2.9456   4.3222

          k = 0.5556-0.3333 0.7778 (  1634 PWs)   bands (ev):

    -3.4127  -0.6374   2.7507   4.0022

          k =-0.2222 0.6667 0.0000 (  1638 PWs)   bands (ev):

    -3.9202   0.6016   2.8482   3.5414

          k = 0.6667-0.2222 0.8889 (  1638 PWs)   bands (ev):

    -3.1004  -0.4709   2.1823   3.2358

          k = 0.5556-0.1111 0.7778 (  1628 PWs)   bands (ev):

    -2.7381  -0.8924   1.7962   3.3473

          k = 0.4444 0.0000 0.6667 (  1628 PWs)   bands (ev):

    -3.4331  -0.0984   1.9435   3.7820

          k = 0.7778-0.1111 1.0000 (  1645 PWs)   bands (ev):

    -2.5765  -1.0096   2.5645   2.7757

          k = 0.6667-0.0000 0.8889 (  1630 PWs)   bands (ev):

    -2.0584  -1.4658   1.8394   2.8624

          k = 0.5556-0.1111 1.0000 (  1627 PWs)   bands (ev):

    -2.3021  -1.1540   1.8773   2.5197

     highest occupied level (ev):     5.9169

!    total energy              =     -89.28861168 Ry
     Harris-Foulkes estimate   =     -89.28861180 Ry
     estimated scf accuracy    <       0.00000017 Ry

     total all-electron energy =     -1156.154740 Ry

     The total energy is the sum of the following terms:

     one-electron contribution =       5.66724429 Ry
     hartree contribution      =       1.10324374 Ry
     xc contribution           =     -12.15123175 Ry
     ewald contribution        =     -16.73568328 Ry
     one-center paw contrib.   =     -67.17218468 Ry

     convergence has been achieved in   5 iterations

     Forces acting on atoms (Ry/au):

     atom    1 type  1   force =     0.00000000    0.00000000    0.00000000
     atom    2 type  1   force =     0.00000000    0.00000000    0.00000000

     Total force =     0.000000     Total SCF correction =     0.000000


     entering subroutine stress ...

          total   stress  (Ry/bohr**3)                   (kbar)     P=  -26.00
  -0.00017674  -0.00000000  -0.00000000        -26.00     -0.00     -0.00
  -0.00000000  -0.00017674   0.00000000         -0.00    -26.00      0.00
  -0.00000000   0.00000000  -0.00017674         -0.00      0.00    -26.00


     Writing output data file pwscf.save
 
     init_run     :      0.63s CPU      0.63s WALL (       1 calls)
     electrons    :      3.99s CPU      4.03s WALL (       1 calls)
     forces       :      0.05s CPU      0.05s WALL (       1 calls)
     stress       :      0.21s CPU      0.21s WALL (       1 calls)

     Called by init_run:
     wfcinit      :      0.39s CPU      0.39s WALL (       1 calls)
     potinit      :      0.02s CPU      0.02s WALL (       1 calls)

     Called by electrons:
     c_bands      :      3.16s CPU      3.19s WALL (       6 calls)
     sum_band     :      0.69s CPU      0.70s WALL (       6 calls)
     v_of_rho     :      0.02s CPU      0.02s WALL (       6 calls)
     newd         :      0.05s CPU      0.05s WALL (       6 calls)
     mix_rho      :      0.01s CPU      0.01s WALL (       6 calls)

     Called by c_bands:
     init_us_2    :      0.11s CPU      0.15s WALL (     525 calls)
     cegterg      :      2.93s CPU      2.95s WALL (     210 calls)

     Called by *egterg:
     h_psi        :      3.08s CPU      3.11s WALL (     626 calls)
     s_psi        :      0.03s CPU      0.03s WALL (     626 calls)
     g_psi        :      0.02s CPU      0.03s WALL (     381 calls)
     cdiaghg      :      0.02s CPU      0.02s WALL (     556 calls)

     Called by h_psi:
     add_vuspsi   :      0.03s CPU      0.03s WALL (     626 calls)

     General routines
     calbec       :      0.04s CPU      0.07s WALL (     906 calls)
     fft          :      0.04s CPU      0.04s WALL (      46 calls)
     fftw         :      3.27s CPU      3.25s WALL (    5822 calls)
     davcio       :      0.00s CPU      0.00s WALL (      35 calls)
 
     Parallel routines
     fft_scatter  :      0.20s CPU      0.20s WALL (    5868 calls)

     PAW routines
     PAW_pot      :      0.08s CPU      0.08s WALL (       6 calls)
     PAW_symme    :      0.00s CPU      0.00s WALL (      12 calls)
 
     PWSCF        :     5.07s CPU         5.19s WALL

 
   This run was terminated on:  15:52:19   1May2015            

=------------------------------------------------------------------------------=
   JOB DONE.
=------------------------------------------------------------------------------=
