
     Program PWSCF v.5.1 starts on  1May2015 at 15:51:53 

     This program is part of the open-source Quantum ESPRESSO suite
     for quantum simulation of materials; please cite
         "P. Giannozzi et al., J. Phys.:Condens. Matter 21 395502 (2009);
          URL http://www.quantum-espresso.org", 
     in publications or presentations arising from this work. More details at
     http://www.quantum-espresso.org/quote

     Parallel version (MPI), running on     1 processors
     Waiting for input...
     Reading input from standard input
Warning: card &IONS ignored
Warning: card / ignored
Warning: card &CELL ignored
Warning: card / ignored

     Current dimensions of program PWSCF are:
     Max number of different atomic species (ntypx) = 10
     Max number of k-points (npk) =  40000
     Max angular momentum in pseudopotentials (lmaxx) =  3
               file Si.pz-n-kjpaw_psl.0.1.UPF: wavefunction(s)  3S renormalized

     Subspace diagonalization in iterative solution of the eigenvalue problem:
     a serial algorithm will be used

 
     G-vector sticks info
     --------------------
     sticks:   dense  smooth     PW     G-vecs:    dense   smooth      PW
     Sum         733     733    223                12891    12891    2133
 


     bravais-lattice index     =            2
     lattice parameter (alat)  =      10.2400  a.u.
     unit-cell volume          =     268.4355 (a.u.)^3
     number of atoms/cell      =            2
     number of atomic types    =            1
     number of electrons       =         8.00
     number of Kohn-Sham states=            4
     kinetic-energy cutoff     =      50.0000  Ry
     charge density cutoff     =     200.0000  Ry
     convergence threshold     =      1.0E-06
     mixing beta               =       0.7000
     number of iterations used =            8  plain     mixing
     Exchange-correlation      =  SLA  PZ   NOGX NOGC ( 1  1  0  0 0)

     celldm(1)=  10.240000  celldm(2)=   0.000000  celldm(3)=   0.000000
     celldm(4)=   0.000000  celldm(5)=   0.000000  celldm(6)=   0.000000

     crystal axes: (cart. coord. in units of alat)
               a(1) = (  -0.500000   0.000000   0.500000 )  
               a(2) = (   0.000000   0.500000   0.500000 )  
               a(3) = (  -0.500000   0.500000   0.000000 )  

     reciprocal axes: (cart. coord. in units 2 pi/alat)
               b(1) = ( -1.000000 -1.000000  1.000000 )  
               b(2) = (  1.000000  1.000000  1.000000 )  
               b(3) = ( -1.000000  1.000000 -1.000000 )  


     PseudoPot. # 1 for Si read from file:
     ./Si.pz-n-kjpaw_psl.0.1.UPF
     MD5 check sum: 39d85f6d7c0899aba58824f54593099f
     Pseudo is Projector augmented-wave + core cor, Zval =  4.0
     Generated using "atomic" code by A. Dal Corso  v.5.0.2 svn rev. 9415
     Shape of augmentation charge: PSQ
     Using radial grid of 1141 points,  4 beta functions with: 
                l(1) =   0
                l(2) =   0
                l(3) =   1
                l(4) =   1
     Q(r) pseudized with 0 coefficients 


     atomic species   valence    mass     pseudopotential
        Si             4.00    28.05500     Si( 1.00)

     48 Sym. Ops., with inversion, found (24 have fractional translation)



   Cartesian axes

     site n.     atom                  positions (alat units)
         1           Si  tau(   1) = (   0.0000000   0.0000000   0.0000000  )
         2           Si  tau(   2) = (  -0.2500000   0.2500000   0.2500000  )

     number of k points=    35
                       cart. coord. in units 2pi/alat
        k(    1) = (   0.0000000   0.0000000   0.0000000), wk =   0.0027435
        k(    2) = (  -0.1111111   0.1111111  -0.1111111), wk =   0.0219479
        k(    3) = (  -0.2222222   0.2222222  -0.2222222), wk =   0.0219479
        k(    4) = (  -0.3333333   0.3333333  -0.3333333), wk =   0.0219479
        k(    5) = (  -0.4444444   0.4444444  -0.4444444), wk =   0.0219479
        k(    6) = (   0.0000000   0.2222222   0.0000000), wk =   0.0164609
        k(    7) = (  -0.1111111   0.3333333  -0.1111111), wk =   0.0658436
        k(    8) = (  -0.2222222   0.4444444  -0.2222222), wk =   0.0658436
        k(    9) = (  -0.3333333   0.5555556  -0.3333333), wk =   0.0658436
        k(   10) = (   0.5555556  -0.3333333   0.5555556), wk =   0.0658436
        k(   11) = (   0.4444444  -0.2222222   0.4444444), wk =   0.0658436
        k(   12) = (   0.3333333  -0.1111111   0.3333333), wk =   0.0658436
        k(   13) = (   0.2222222  -0.0000000   0.2222222), wk =   0.0329218
        k(   14) = (   0.0000000   0.4444444   0.0000000), wk =   0.0164609
        k(   15) = (  -0.1111111   0.5555556  -0.1111111), wk =   0.0658436
        k(   16) = (  -0.2222222   0.6666667  -0.2222222), wk =   0.0658436
        k(   17) = (   0.6666667  -0.2222222   0.6666667), wk =   0.0658436
        k(   18) = (   0.5555556  -0.1111111   0.5555556), wk =   0.0658436
        k(   19) = (   0.4444444   0.0000000   0.4444444), wk =   0.0329218
        k(   20) = (   0.0000000   0.6666667   0.0000000), wk =   0.0164609
        k(   21) = (  -0.1111111   0.7777778  -0.1111111), wk =   0.0658436
        k(   22) = (   0.7777778  -0.1111111   0.7777778), wk =   0.0658436
        k(   23) = (   0.6666667  -0.0000000   0.6666667), wk =   0.0329218
        k(   24) = (   0.0000000   0.8888889   0.0000000), wk =   0.0164609
        k(   25) = (   0.8888889   0.0000000   0.8888889), wk =   0.0329218
        k(   26) = (  -0.2222222   0.4444444   0.0000000), wk =   0.0658436
        k(   27) = (  -0.3333333   0.5555556  -0.1111111), wk =   0.1316872
        k(   28) = (   0.5555556  -0.3333333   0.7777778), wk =   0.1316872
        k(   29) = (  -0.2222222   0.6666667   0.0000000), wk =   0.0658436
        k(   30) = (   0.6666667  -0.2222222   0.8888889), wk =   0.1316872
        k(   31) = (   0.5555556  -0.1111111   0.7777778), wk =   0.1316872
        k(   32) = (   0.4444444   0.0000000   0.6666667), wk =   0.0658436
        k(   33) = (   0.7777778  -0.1111111   1.0000000), wk =   0.0658436
        k(   34) = (   0.6666667  -0.0000000   0.8888889), wk =   0.0658436
        k(   35) = (   0.5555556  -0.1111111   1.0000000), wk =   0.0658436

     Dense  grid:    12891 G-vectors     FFT dimensions: (  36,  36,  36)

     Largest allocated arrays     est. size (Mb)     dimensions
        Kohn-Sham Wavefunctions         0.10 Mb     (    1639,    4)
        NL pseudopotentials             0.40 Mb     (    1639,   16)
        Each V/rho on FFT grid          0.71 Mb     (   46656)
        Each G-vector array             0.10 Mb     (   12891)
        G-vector shells                 0.00 Mb     (     179)
     Largest temporary arrays     est. size (Mb)     dimensions
        Auxiliary wavefunctions         0.40 Mb     (    1639,   16)
        Each subspace H/S matrix        0.00 Mb     (      16,   16)
        Each <psi_i|beta_j> matrix      0.00 Mb     (      16,    4)
        Arrays for rho mixing           5.70 Mb     (   46656,    8)

     Initial potential from superposition of free atoms

     starting charge    7.99900, renormalised to    8.00000
     Starting wfc are    8 randomized atomic wfcs
     Checking if some PAW data can be deallocated... 

     total cpu time spent up to now is        0.8 secs

     per-process dynamical memory:    14.2 Mb

     Self-consistent Calculation

     iteration #  1     ecut=    50.00 Ry     beta=0.70
     Davidson diagonalization with overlap
     ethr =  1.00E-02,  avg # of iterations =  2.0

     Threshold (ethr) on eigenvalues was too large:
     Diagonalizing with lowered threshold

     Davidson diagonalization with overlap
     ethr =  7.51E-04,  avg # of iterations =  1.0

     total cpu time spent up to now is        2.0 secs

     total energy              =     -89.28567275 Ry
     Harris-Foulkes estimate   =     -89.30673491 Ry
     estimated scf accuracy    <       0.05955570 Ry

     iteration #  2     ecut=    50.00 Ry     beta=0.70
     Davidson diagonalization with overlap
     ethr =  7.44E-04,  avg # of iterations =  1.0

     total cpu time spent up to now is        2.6 secs

     total energy              =     -89.28870357 Ry
     Harris-Foulkes estimate   =     -89.28910522 Ry
     estimated scf accuracy    <       0.00196359 Ry

     iteration #  3     ecut=    50.00 Ry     beta=0.70
     Davidson diagonalization with overlap
     ethr =  2.45E-05,  avg # of iterations =  2.6

     total cpu time spent up to now is        3.3 secs

     total energy              =     -89.28916753 Ry
     Harris-Foulkes estimate   =     -89.28921206 Ry
     estimated scf accuracy    <       0.00007501 Ry

     iteration #  4     ecut=    50.00 Ry     beta=0.70
     Davidson diagonalization with overlap
     ethr =  9.38E-07,  avg # of iterations =  2.1

     total cpu time spent up to now is        4.0 secs

     total energy              =     -89.28918913 Ry
     Harris-Foulkes estimate   =     -89.28919462 Ry
     estimated scf accuracy    <       0.00001028 Ry

     iteration #  5     ecut=    50.00 Ry     beta=0.70
     Davidson diagonalization with overlap
     ethr =  1.28E-07,  avg # of iterations =  2.1

     total cpu time spent up to now is        4.8 secs

     End of self-consistent calculation

          k = 0.0000 0.0000 0.0000 (  1639 PWs)   bands (ev):

    -5.9179   6.0994   6.0995   6.0995

          k =-0.1111 0.1111-0.1111 (  1594 PWs)   bands (ev):

    -5.7553   4.7369   5.8593   5.8593

          k =-0.2222 0.2222-0.2222 (  1597 PWs)   bands (ev):

    -5.2773   2.6459   5.4328   5.4328

          k =-0.3333 0.3333-0.3333 (  1609 PWs)   bands (ev):

    -4.5302   0.7213   5.0943   5.0943

          k =-0.4444 0.4444-0.4444 (  1601 PWs)   bands (ev):

    -3.7281  -0.6878   4.9186   4.9186

          k = 0.0000 0.2222 0.0000 (  1587 PWs)   bands (ev):

    -5.7007   4.9749   5.4130   5.4130

          k =-0.1111 0.3333-0.1111 (  1597 PWs)   bands (ev):

    -5.3259   3.2776   4.9362   5.0713

          k =-0.2222 0.4444-0.2222 (  1593 PWs)   bands (ev):

    -4.6598   1.3569   4.5593   4.6308

          k =-0.3333 0.5556-0.3333 (  1605 PWs)   bands (ev):

    -3.8241  -0.2471   4.1198   4.5502

          k = 0.5556-0.3333 0.5556 (  1597 PWs)   bands (ev):

    -3.4383  -0.8275   3.8581   4.6930

          k = 0.4444-0.2222 0.4444 (  1606 PWs)   bands (ev):

    -4.1061   0.2340   3.8219   5.0269

          k = 0.3333-0.1111 0.3333 (  1601 PWs)   bands (ev):

    -4.9128   1.9774   4.0536   5.4803

          k = 0.2222-0.0000 0.2222 (  1584 PWs)   bands (ev):

    -5.4868   3.7556   4.7099   5.8764

          k = 0.0000 0.4444 0.0000 (  1603 PWs)   bands (ev):

    -5.0551   3.0629   4.4104   4.4104

          k =-0.1111 0.5556-0.1111 (  1608 PWs)   bands (ev):

    -4.4816   1.7237   3.7709   4.0666

          k =-0.2222 0.6667-0.2222 (  1608 PWs)   bands (ev):

    -3.6750   0.2396   3.0177   3.9692

          k = 0.6667-0.2222 0.6667 (  1595 PWs)   bands (ev):

    -3.0095  -0.7155   2.4912   4.1269

          k = 0.5556-0.1111 0.5556 (  1592 PWs)   bands (ev):

    -3.4282  -0.1290   2.3049   4.5123

          k = 0.4444 0.0000 0.4444 (  1588 PWs)   bands (ev):

    -4.2598   1.1305   2.6907   5.0401

          k = 0.0000 0.6667 0.0000 (  1624 PWs)   bands (ev):

    -4.0012   1.0689   3.6625   3.6625

          k =-0.1111 0.7778-0.1111 (  1607 PWs)   bands (ev):

    -3.2568   0.0150   2.9160   3.5048

          k = 0.7778-0.1111 0.7778 (  1615 PWs)   bands (ev):

    -2.4529  -0.8890   1.9904   3.6136

          k = 0.6667-0.0000 0.6667 (  1596 PWs)   bands (ev):

    -2.6258  -0.7001   1.6199   3.9726

          k = 0.0000 0.8889 0.0000 (  1608 PWs)   bands (ev):

    -2.5781  -0.8536   3.2748   3.2748

          k = 0.8889 0.0000 0.8889 (  1610 PWs)   bands (ev):

    -1.7984  -1.6309   2.6370   3.3128

          k =-0.2222 0.4444 0.0000 (  1597 PWs)   bands (ev):

    -4.8528   2.2874   3.6949   4.9231

          k =-0.3333 0.5556-0.1111 (  1598 PWs)   bands (ev):

    -4.1111   0.7869   3.0825   4.4794

          k = 0.5556-0.3333 0.7778 (  1601 PWs)   bands (ev):

    -3.3042  -0.5166   2.8904   4.1518

          k =-0.2222 0.6667 0.0000 (  1608 PWs)   bands (ev):

    -3.8249   0.7638   2.9769   3.6819

          k = 0.6667-0.2222 0.8889 (  1603 PWs)   bands (ev):

    -2.9897  -0.3268   2.3002   3.3692

          k = 0.5556-0.1111 0.7778 (  1604 PWs)   bands (ev):

    -2.6179  -0.7589   1.9067   3.4834

          k = 0.4444 0.0000 0.6667 (  1604 PWs)   bands (ev):

    -3.3277   0.0501   2.0545   3.9271

          k = 0.7778-0.1111 1.0000 (  1608 PWs)   bands (ev):

    -2.4593  -0.8676   2.6876   2.9010

          k = 0.6667-0.0000 0.8889 (  1612 PWs)   bands (ev):

    -1.9282  -1.3324   1.9443   2.9898

          k = 0.5556-0.1111 1.0000 (  1603 PWs)   bands (ev):

    -2.1768  -1.0130   1.9839   2.6372

     highest occupied level (ev):     6.0995

!    total energy              =     -89.28919153 Ry
     Harris-Foulkes estimate   =     -89.28919166 Ry
     estimated scf accuracy    <       0.00000017 Ry

     total all-electron energy =     -1156.155320 Ry

     The total energy is the sum of the following terms:

     one-electron contribution =       5.80518279 Ry
     hartree contribution      =       1.08801771 Ry
     xc contribution           =     -12.17303828 Ry
     ewald contribution        =     -16.83374392 Ry
     one-center paw contrib.   =     -67.17560982 Ry

     convergence has been achieved in   5 iterations

     Forces acting on atoms (Ry/au):

     atom    1 type  1   force =    -0.00000000   -0.00000000   -0.00000000
     atom    2 type  1   force =     0.00000000    0.00000000    0.00000000

     Total force =     0.000000     Total SCF correction =     0.000000


     entering subroutine stress ...

          total   stress  (Ry/bohr**3)                   (kbar)     P=  -10.39
  -0.00007061   0.00000000   0.00000000        -10.39      0.00      0.00
   0.00000000  -0.00007061   0.00000000          0.00    -10.39      0.00
   0.00000000   0.00000000  -0.00007061          0.00      0.00    -10.39


     Writing output data file pwscf.save
 
     init_run     :      0.63s CPU      0.63s WALL (       1 calls)
     electrons    :      3.98s CPU      4.01s WALL (       1 calls)
     forces       :      0.05s CPU      0.05s WALL (       1 calls)
     stress       :      0.21s CPU      0.21s WALL (       1 calls)

     Called by init_run:
     wfcinit      :      0.39s CPU      0.39s WALL (       1 calls)
     potinit      :      0.02s CPU      0.02s WALL (       1 calls)

     Called by electrons:
     c_bands      :      3.15s CPU      3.17s WALL (       6 calls)
     sum_band     :      0.69s CPU      0.70s WALL (       6 calls)
     v_of_rho     :      0.02s CPU      0.02s WALL (       6 calls)
     newd         :      0.05s CPU      0.05s WALL (       6 calls)
     mix_rho      :      0.01s CPU      0.01s WALL (       6 calls)

     Called by c_bands:
     init_us_2    :      0.15s CPU      0.14s WALL (     525 calls)
     cegterg      :      2.93s CPU      2.93s WALL (     210 calls)

     Called by *egterg:
     h_psi        :      3.09s CPU      3.10s WALL (     625 calls)
     s_psi        :      0.03s CPU      0.03s WALL (     625 calls)
     g_psi        :      0.03s CPU      0.03s WALL (     380 calls)
     cdiaghg      :      0.02s CPU      0.02s WALL (     555 calls)

     Called by h_psi:
     add_vuspsi   :      0.04s CPU      0.03s WALL (     625 calls)

     General routines
     calbec       :      0.08s CPU      0.07s WALL (     905 calls)
     fft          :      0.04s CPU      0.04s WALL (      46 calls)
     fftw         :      3.21s CPU      3.23s WALL (    5834 calls)
     davcio       :      0.00s CPU      0.00s WALL (      35 calls)
 
     Parallel routines
     fft_scatter  :      0.22s CPU      0.20s WALL (    5880 calls)

     PAW routines
     PAW_pot      :      0.08s CPU      0.08s WALL (       6 calls)
     PAW_symme    :      0.00s CPU      0.00s WALL (      12 calls)
 
     PWSCF        :     5.05s CPU         5.17s WALL

 
   This run was terminated on:  15:51:58   1May2015            

=------------------------------------------------------------------------------=
   JOB DONE.
=------------------------------------------------------------------------------=
