
     Program PWSCF v.5.1 starts on  1May2015 at 15:52: 9 

     This program is part of the open-source Quantum ESPRESSO suite
     for quantum simulation of materials; please cite
         "P. Giannozzi et al., J. Phys.:Condens. Matter 21 395502 (2009);
          URL http://www.quantum-espresso.org", 
     in publications or presentations arising from this work. More details at
     http://www.quantum-espresso.org/quote

     Parallel version (MPI), running on     1 processors
     Waiting for input...
     Reading input from standard input
Warning: card &IONS ignored
Warning: card / ignored
Warning: card &CELL ignored
Warning: card / ignored

     Current dimensions of program PWSCF are:
     Max number of different atomic species (ntypx) = 10
     Max number of k-points (npk) =  40000
     Max angular momentum in pseudopotentials (lmaxx) =  3
               file Si.pz-n-kjpaw_psl.0.1.UPF: wavefunction(s)  3S renormalized

     Subspace diagonalization in iterative solution of the eigenvalue problem:
     a serial algorithm will be used

 
     G-vector sticks info
     --------------------
     sticks:   dense  smooth     PW     G-vecs:    dense   smooth      PW
     Sum         733     733    223                12939    12939    2229
 


     bravais-lattice index     =            2
     lattice parameter (alat)  =      10.2800  a.u.
     unit-cell volume          =     271.5935 (a.u.)^3
     number of atoms/cell      =            2
     number of atomic types    =            1
     number of electrons       =         8.00
     number of Kohn-Sham states=            4
     kinetic-energy cutoff     =      50.0000  Ry
     charge density cutoff     =     200.0000  Ry
     convergence threshold     =      1.0E-06
     mixing beta               =       0.7000
     number of iterations used =            8  plain     mixing
     Exchange-correlation      =  SLA  PZ   NOGX NOGC ( 1  1  0  0 0)

     celldm(1)=  10.280000  celldm(2)=   0.000000  celldm(3)=   0.000000
     celldm(4)=   0.000000  celldm(5)=   0.000000  celldm(6)=   0.000000

     crystal axes: (cart. coord. in units of alat)
               a(1) = (  -0.500000   0.000000   0.500000 )  
               a(2) = (   0.000000   0.500000   0.500000 )  
               a(3) = (  -0.500000   0.500000   0.000000 )  

     reciprocal axes: (cart. coord. in units 2 pi/alat)
               b(1) = ( -1.000000 -1.000000  1.000000 )  
               b(2) = (  1.000000  1.000000  1.000000 )  
               b(3) = ( -1.000000  1.000000 -1.000000 )  


     PseudoPot. # 1 for Si read from file:
     ./Si.pz-n-kjpaw_psl.0.1.UPF
     MD5 check sum: 39d85f6d7c0899aba58824f54593099f
     Pseudo is Projector augmented-wave + core cor, Zval =  4.0
     Generated using "atomic" code by A. Dal Corso  v.5.0.2 svn rev. 9415
     Shape of augmentation charge: PSQ
     Using radial grid of 1141 points,  4 beta functions with: 
                l(1) =   0
                l(2) =   0
                l(3) =   1
                l(4) =   1
     Q(r) pseudized with 0 coefficients 


     atomic species   valence    mass     pseudopotential
        Si             4.00    28.05500     Si( 1.00)

     48 Sym. Ops., with inversion, found (24 have fractional translation)



   Cartesian axes

     site n.     atom                  positions (alat units)
         1           Si  tau(   1) = (   0.0000000   0.0000000   0.0000000  )
         2           Si  tau(   2) = (  -0.2500000   0.2500000   0.2500000  )

     number of k points=    35
                       cart. coord. in units 2pi/alat
        k(    1) = (   0.0000000   0.0000000   0.0000000), wk =   0.0027435
        k(    2) = (  -0.1111111   0.1111111  -0.1111111), wk =   0.0219479
        k(    3) = (  -0.2222222   0.2222222  -0.2222222), wk =   0.0219479
        k(    4) = (  -0.3333333   0.3333333  -0.3333333), wk =   0.0219479
        k(    5) = (  -0.4444444   0.4444444  -0.4444444), wk =   0.0219479
        k(    6) = (   0.0000000   0.2222222   0.0000000), wk =   0.0164609
        k(    7) = (  -0.1111111   0.3333333  -0.1111111), wk =   0.0658436
        k(    8) = (  -0.2222222   0.4444444  -0.2222222), wk =   0.0658436
        k(    9) = (  -0.3333333   0.5555556  -0.3333333), wk =   0.0658436
        k(   10) = (   0.5555556  -0.3333333   0.5555556), wk =   0.0658436
        k(   11) = (   0.4444444  -0.2222222   0.4444444), wk =   0.0658436
        k(   12) = (   0.3333333  -0.1111111   0.3333333), wk =   0.0658436
        k(   13) = (   0.2222222  -0.0000000   0.2222222), wk =   0.0329218
        k(   14) = (   0.0000000   0.4444444   0.0000000), wk =   0.0164609
        k(   15) = (  -0.1111111   0.5555556  -0.1111111), wk =   0.0658436
        k(   16) = (  -0.2222222   0.6666667  -0.2222222), wk =   0.0658436
        k(   17) = (   0.6666667  -0.2222222   0.6666667), wk =   0.0658436
        k(   18) = (   0.5555556  -0.1111111   0.5555556), wk =   0.0658436
        k(   19) = (   0.4444444   0.0000000   0.4444444), wk =   0.0329218
        k(   20) = (   0.0000000   0.6666667   0.0000000), wk =   0.0164609
        k(   21) = (  -0.1111111   0.7777778  -0.1111111), wk =   0.0658436
        k(   22) = (   0.7777778  -0.1111111   0.7777778), wk =   0.0658436
        k(   23) = (   0.6666667  -0.0000000   0.6666667), wk =   0.0329218
        k(   24) = (   0.0000000   0.8888889   0.0000000), wk =   0.0164609
        k(   25) = (   0.8888889   0.0000000   0.8888889), wk =   0.0329218
        k(   26) = (  -0.2222222   0.4444444   0.0000000), wk =   0.0658436
        k(   27) = (  -0.3333333   0.5555556  -0.1111111), wk =   0.1316872
        k(   28) = (   0.5555556  -0.3333333   0.7777778), wk =   0.1316872
        k(   29) = (  -0.2222222   0.6666667   0.0000000), wk =   0.0658436
        k(   30) = (   0.6666667  -0.2222222   0.8888889), wk =   0.1316872
        k(   31) = (   0.5555556  -0.1111111   0.7777778), wk =   0.1316872
        k(   32) = (   0.4444444   0.0000000   0.6666667), wk =   0.0658436
        k(   33) = (   0.7777778  -0.1111111   1.0000000), wk =   0.0658436
        k(   34) = (   0.6666667  -0.0000000   0.8888889), wk =   0.0658436
        k(   35) = (   0.5555556  -0.1111111   1.0000000), wk =   0.0658436

     Dense  grid:    12939 G-vectors     FFT dimensions: (  36,  36,  36)

     Largest allocated arrays     est. size (Mb)     dimensions
        Kohn-Sham Wavefunctions         0.10 Mb     (    1640,    4)
        NL pseudopotentials             0.40 Mb     (    1640,   16)
        Each V/rho on FFT grid          0.71 Mb     (   46656)
        Each G-vector array             0.10 Mb     (   12939)
        G-vector shells                 0.00 Mb     (     180)
     Largest temporary arrays     est. size (Mb)     dimensions
        Auxiliary wavefunctions         0.40 Mb     (    1640,   16)
        Each subspace H/S matrix        0.00 Mb     (      16,   16)
        Each <psi_i|beta_j> matrix      0.00 Mb     (      16,    4)
        Arrays for rho mixing           5.70 Mb     (   46656,    8)

     Initial potential from superposition of free atoms

     starting charge    7.99900, renormalised to    8.00000
     Starting wfc are    8 randomized atomic wfcs
     Checking if some PAW data can be deallocated... 

     total cpu time spent up to now is        0.8 secs

     per-process dynamical memory:    14.2 Mb

     Self-consistent Calculation

     iteration #  1     ecut=    50.00 Ry     beta=0.70
     Davidson diagonalization with overlap
     ethr =  1.00E-02,  avg # of iterations =  2.0

     Threshold (ethr) on eigenvalues was too large:
     Diagonalizing with lowered threshold

     Davidson diagonalization with overlap
     ethr =  7.37E-04,  avg # of iterations =  1.0

     total cpu time spent up to now is        2.0 secs

     total energy              =     -89.28551406 Ry
     Harris-Foulkes estimate   =     -89.30591044 Ry
     estimated scf accuracy    <       0.05831498 Ry

     iteration #  2     ecut=    50.00 Ry     beta=0.70
     Davidson diagonalization with overlap
     ethr =  7.29E-04,  avg # of iterations =  1.0

     total cpu time spent up to now is        2.6 secs

     total energy              =     -89.28838484 Ry
     Harris-Foulkes estimate   =     -89.28879607 Ry
     estimated scf accuracy    <       0.00197151 Ry

     iteration #  3     ecut=    50.00 Ry     beta=0.70
     Davidson diagonalization with overlap
     ethr =  2.46E-05,  avg # of iterations =  2.6

     total cpu time spent up to now is        3.3 secs

     total energy              =     -89.28883939 Ry
     Harris-Foulkes estimate   =     -89.28887837 Ry
     estimated scf accuracy    <       0.00007249 Ry

     iteration #  4     ecut=    50.00 Ry     beta=0.70
     Davidson diagonalization with overlap
     ethr =  9.06E-07,  avg # of iterations =  2.1

     total cpu time spent up to now is        4.0 secs

     total energy              =     -89.28886062 Ry
     Harris-Foulkes estimate   =     -89.28886595 Ry
     estimated scf accuracy    <       0.00000998 Ry

     iteration #  5     ecut=    50.00 Ry     beta=0.70
     Davidson diagonalization with overlap
     ethr =  1.25E-07,  avg # of iterations =  2.1

     total cpu time spent up to now is        4.8 secs

     End of self-consistent calculation

          k = 0.0000 0.0000 0.0000 (  1639 PWs)   bands (ev):

    -5.9600   5.9773   5.9773   5.9773

          k =-0.1111 0.1111-0.1111 (  1606 PWs)   bands (ev):

    -5.7990   4.6165   5.7400   5.7400

          k =-0.2222 0.2222-0.2222 (  1612 PWs)   bands (ev):

    -5.3260   2.5405   5.3174   5.3174

          k =-0.3333 0.3333-0.3333 (  1634 PWs)   bands (ev):

    -4.5873   0.6336   4.9813   4.9813

          k =-0.4444 0.4444-0.4444 (  1616 PWs)   bands (ev):

    -3.7967  -0.7591   4.8066   4.8066

          k = 0.0000 0.2222 0.0000 (  1619 PWs)   bands (ev):

    -5.7449   4.8413   5.3000   5.3000

          k =-0.1111 0.3333-0.1111 (  1617 PWs)   bands (ev):

    -5.3740   3.1615   4.8280   4.9554

          k =-0.2222 0.4444-0.2222 (  1613 PWs)   bands (ev):

    -4.7151   1.2597   4.4468   4.5247

          k =-0.3333 0.5556-0.3333 (  1615 PWs)   bands (ev):

    -3.8901  -0.3265   4.0113   4.4438

          k = 0.5556-0.3333 0.5556 (  1616 PWs)   bands (ev):

    -3.5109  -0.8984   3.7532   4.5843

          k = 0.4444-0.2222 0.4444 (  1627 PWs)   bands (ev):

    -4.1682   0.1489   3.7194   4.9142

          k = 0.3333-0.1111 0.3333 (  1618 PWs)   bands (ev):

    -4.9653   1.8737   3.9521   5.3627

          k = 0.2222-0.0000 0.2222 (  1612 PWs)   bands (ev):

    -5.5332   3.6354   4.6057   5.7551

          k = 0.0000 0.4444 0.0000 (  1616 PWs)   bands (ev):

    -5.1059   2.9349   4.3079   4.3079

          k =-0.1111 0.5556-0.1111 (  1627 PWs)   bands (ev):

    -4.5383   1.6102   3.6730   3.9671

          k =-0.2222 0.6667-0.2222 (  1626 PWs)   bands (ev):

    -3.7412   0.1446   2.9258   3.8701

          k = 0.6667-0.2222 0.6667 (  1621 PWs)   bands (ev):

    -3.0861  -0.7961   2.4046   4.0255

          k = 0.5556-0.1111 0.5556 (  1617 PWs)   bands (ev):

    -3.4984  -0.2185   2.2228   4.4062

          k = 0.4444 0.0000 0.4444 (  1620 PWs)   bands (ev):

    -4.3195   1.0257   2.6083   4.9278

          k = 0.0000 0.6667 0.0000 (  1640 PWs)   bands (ev):

    -4.0626   0.9563   3.5671   3.5671

          k =-0.1111 0.7778-0.1111 (  1628 PWs)   bands (ev):

    -3.3263  -0.0876   2.8311   3.4106

          k = 0.7778-0.1111 0.7778 (  1632 PWs)   bands (ev):

    -2.5334  -0.9811   1.9184   3.5180

          k = 0.6667-0.0000 0.6667 (  1612 PWs)   bands (ev):

    -2.7059  -0.7923   1.5528   3.8729

          k = 0.0000 0.8889 0.0000 (  1624 PWs)   bands (ev):

    -2.6542  -0.9475   3.1828   3.1828

          k = 0.8889 0.0000 0.8889 (  1632 PWs)   bands (ev):

    -1.8841  -1.7164   2.5557   3.2204

          k =-0.2222 0.4444 0.0000 (  1622 PWs)   bands (ev):

    -4.9058   2.1725   3.6014   4.8114

          k =-0.3333 0.5556-0.1111 (  1623 PWs)   bands (ev):

    -4.1724   0.6886   2.9909   4.3742

          k = 0.5556-0.3333 0.7778 (  1620 PWs)   bands (ev):

    -3.3768  -0.5973   2.7969   4.0517

          k =-0.2222 0.6667 0.0000 (  1628 PWs)   bands (ev):

    -3.8886   0.6554   2.8908   3.5879

          k = 0.6667-0.2222 0.8889 (  1625 PWs)   bands (ev):

    -3.0638  -0.4231   2.2213   3.2800

          k = 0.5556-0.1111 0.7778 (  1620 PWs)   bands (ev):

    -2.6983  -0.8481   1.8327   3.3923

          k = 0.4444 0.0000 0.6667 (  1615 PWs)   bands (ev):

    -3.3982  -0.0491   1.9802   3.8301

          k = 0.7778-0.1111 1.0000 (  1629 PWs)   bands (ev):

    -2.5377  -0.9625   2.6052   2.8172

          k = 0.6667-0.0000 0.8889 (  1630 PWs)   bands (ev):

    -2.0153  -1.4216   1.8741   2.9045

          k = 0.5556-0.1111 1.0000 (  1624 PWs)   bands (ev):

    -2.2606  -1.1073   1.9125   2.5586

     highest occupied level (ev):     5.9773

!    total energy              =     -89.28886299 Ry
     Harris-Foulkes estimate   =     -89.28886312 Ry
     estimated scf accuracy    <       0.00000018 Ry

     total all-electron energy =     -1156.154991 Ry

     The total energy is the sum of the following terms:

     one-electron contribution =       5.71298242 Ry
     hartree contribution      =       1.09816001 Ry
     xc contribution           =     -12.15845382 Ry
     ewald contribution        =     -16.76824298 Ry
     one-center paw contrib.   =     -67.17330862 Ry

     convergence has been achieved in   5 iterations

     Forces acting on atoms (Ry/au):

     atom    1 type  1   force =     0.00000000    0.00000000    0.00000000
     atom    2 type  1   force =     0.00000000    0.00000000    0.00000000

     Total force =     0.000000     Total SCF correction =     0.000000


     entering subroutine stress ...

          total   stress  (Ry/bohr**3)                   (kbar)     P=  -20.94
  -0.00014236   0.00000000   0.00000000        -20.94      0.00      0.00
   0.00000000  -0.00014236  -0.00000000          0.00    -20.94     -0.00
   0.00000000  -0.00000000  -0.00014236          0.00     -0.00    -20.94


     Writing output data file pwscf.save
 
     init_run     :      0.62s CPU      0.64s WALL (       1 calls)
     electrons    :      4.00s CPU      4.03s WALL (       1 calls)
     forces       :      0.05s CPU      0.05s WALL (       1 calls)
     stress       :      0.21s CPU      0.21s WALL (       1 calls)

     Called by init_run:
     wfcinit      :      0.39s CPU      0.39s WALL (       1 calls)
     potinit      :      0.02s CPU      0.02s WALL (       1 calls)

     Called by electrons:
     c_bands      :      3.16s CPU      3.18s WALL (       6 calls)
     sum_band     :      0.70s CPU      0.70s WALL (       6 calls)
     v_of_rho     :      0.02s CPU      0.02s WALL (       6 calls)
     newd         :      0.05s CPU      0.05s WALL (       6 calls)
     mix_rho      :      0.01s CPU      0.01s WALL (       6 calls)

     Called by c_bands:
     init_us_2    :      0.12s CPU      0.14s WALL (     525 calls)
     cegterg      :      2.91s CPU      2.95s WALL (     210 calls)

     Called by *egterg:
     h_psi        :      3.06s CPU      3.11s WALL (     624 calls)
     s_psi        :      0.04s CPU      0.03s WALL (     624 calls)
     g_psi        :      0.03s CPU      0.03s WALL (     379 calls)
     cdiaghg      :      0.01s CPU      0.02s WALL (     554 calls)

     Called by h_psi:
     add_vuspsi   :      0.03s CPU      0.03s WALL (     624 calls)

     General routines
     calbec       :      0.06s CPU      0.07s WALL (     904 calls)
     fft          :      0.04s CPU      0.04s WALL (      46 calls)
     fftw         :      3.27s CPU      3.25s WALL (    5820 calls)
     davcio       :      0.00s CPU      0.00s WALL (      35 calls)
 
     Parallel routines
     fft_scatter  :      0.16s CPU      0.20s WALL (    5866 calls)

     PAW routines
     PAW_pot      :      0.08s CPU      0.08s WALL (       6 calls)
     PAW_symme    :      0.00s CPU      0.00s WALL (      12 calls)
 
     PWSCF        :     5.07s CPU         5.19s WALL

 
   This run was terminated on:  15:52:14   1May2015            

=------------------------------------------------------------------------------=
   JOB DONE.
=------------------------------------------------------------------------------=
