
     Program PWSCF v.5.1 starts on  1May2015 at 15:51:27 

     This program is part of the open-source Quantum ESPRESSO suite
     for quantum simulation of materials; please cite
         "P. Giannozzi et al., J. Phys.:Condens. Matter 21 395502 (2009);
          URL http://www.quantum-espresso.org", 
     in publications or presentations arising from this work. More details at
     http://www.quantum-espresso.org/quote

     Parallel version (MPI), running on     1 processors
     Waiting for input...
     Reading input from standard input
Warning: card &IONS ignored
Warning: card / ignored
Warning: card &CELL ignored
Warning: card / ignored

     Current dimensions of program PWSCF are:
     Max number of different atomic species (ntypx) = 10
     Max number of k-points (npk) =  40000
     Max angular momentum in pseudopotentials (lmaxx) =  3
               file Si.pz-n-kjpaw_psl.0.1.UPF: wavefunction(s)  3S renormalized

     Subspace diagonalization in iterative solution of the eigenvalue problem:
     a serial algorithm will be used

 
     G-vector sticks info
     --------------------
     sticks:   dense  smooth     PW     G-vecs:    dense   smooth      PW
     Sum         721     721    211                12627    12627    2109
 


     bravais-lattice index     =            2
     lattice parameter (alat)  =      10.1900  a.u.
     unit-cell volume          =     264.5225 (a.u.)^3
     number of atoms/cell      =            2
     number of atomic types    =            1
     number of electrons       =         8.00
     number of Kohn-Sham states=            4
     kinetic-energy cutoff     =      50.0000  Ry
     charge density cutoff     =     200.0000  Ry
     convergence threshold     =      1.0E-06
     mixing beta               =       0.7000
     number of iterations used =            8  plain     mixing
     Exchange-correlation      =  SLA  PZ   NOGX NOGC ( 1  1  0  0 0)

     celldm(1)=  10.190000  celldm(2)=   0.000000  celldm(3)=   0.000000
     celldm(4)=   0.000000  celldm(5)=   0.000000  celldm(6)=   0.000000

     crystal axes: (cart. coord. in units of alat)
               a(1) = (  -0.500000   0.000000   0.500000 )  
               a(2) = (   0.000000   0.500000   0.500000 )  
               a(3) = (  -0.500000   0.500000   0.000000 )  

     reciprocal axes: (cart. coord. in units 2 pi/alat)
               b(1) = ( -1.000000 -1.000000  1.000000 )  
               b(2) = (  1.000000  1.000000  1.000000 )  
               b(3) = ( -1.000000  1.000000 -1.000000 )  


     PseudoPot. # 1 for Si read from file:
     ./Si.pz-n-kjpaw_psl.0.1.UPF
     MD5 check sum: 39d85f6d7c0899aba58824f54593099f
     Pseudo is Projector augmented-wave + core cor, Zval =  4.0
     Generated using "atomic" code by A. Dal Corso  v.5.0.2 svn rev. 9415
     Shape of augmentation charge: PSQ
     Using radial grid of 1141 points,  4 beta functions with: 
                l(1) =   0
                l(2) =   0
                l(3) =   1
                l(4) =   1
     Q(r) pseudized with 0 coefficients 


     atomic species   valence    mass     pseudopotential
        Si             4.00    28.05500     Si( 1.00)

     48 Sym. Ops., with inversion, found (24 have fractional translation)



   Cartesian axes

     site n.     atom                  positions (alat units)
         1           Si  tau(   1) = (   0.0000000   0.0000000   0.0000000  )
         2           Si  tau(   2) = (  -0.2500000   0.2500000   0.2500000  )

     number of k points=    35
                       cart. coord. in units 2pi/alat
        k(    1) = (   0.0000000   0.0000000   0.0000000), wk =   0.0027435
        k(    2) = (  -0.1111111   0.1111111  -0.1111111), wk =   0.0219479
        k(    3) = (  -0.2222222   0.2222222  -0.2222222), wk =   0.0219479
        k(    4) = (  -0.3333333   0.3333333  -0.3333333), wk =   0.0219479
        k(    5) = (  -0.4444444   0.4444444  -0.4444444), wk =   0.0219479
        k(    6) = (   0.0000000   0.2222222   0.0000000), wk =   0.0164609
        k(    7) = (  -0.1111111   0.3333333  -0.1111111), wk =   0.0658436
        k(    8) = (  -0.2222222   0.4444444  -0.2222222), wk =   0.0658436
        k(    9) = (  -0.3333333   0.5555556  -0.3333333), wk =   0.0658436
        k(   10) = (   0.5555556  -0.3333333   0.5555556), wk =   0.0658436
        k(   11) = (   0.4444444  -0.2222222   0.4444444), wk =   0.0658436
        k(   12) = (   0.3333333  -0.1111111   0.3333333), wk =   0.0658436
        k(   13) = (   0.2222222  -0.0000000   0.2222222), wk =   0.0329218
        k(   14) = (   0.0000000   0.4444444   0.0000000), wk =   0.0164609
        k(   15) = (  -0.1111111   0.5555556  -0.1111111), wk =   0.0658436
        k(   16) = (  -0.2222222   0.6666667  -0.2222222), wk =   0.0658436
        k(   17) = (   0.6666667  -0.2222222   0.6666667), wk =   0.0658436
        k(   18) = (   0.5555556  -0.1111111   0.5555556), wk =   0.0658436
        k(   19) = (   0.4444444   0.0000000   0.4444444), wk =   0.0329218
        k(   20) = (   0.0000000   0.6666667   0.0000000), wk =   0.0164609
        k(   21) = (  -0.1111111   0.7777778  -0.1111111), wk =   0.0658436
        k(   22) = (   0.7777778  -0.1111111   0.7777778), wk =   0.0658436
        k(   23) = (   0.6666667  -0.0000000   0.6666667), wk =   0.0329218
        k(   24) = (   0.0000000   0.8888889   0.0000000), wk =   0.0164609
        k(   25) = (   0.8888889   0.0000000   0.8888889), wk =   0.0329218
        k(   26) = (  -0.2222222   0.4444444   0.0000000), wk =   0.0658436
        k(   27) = (  -0.3333333   0.5555556  -0.1111111), wk =   0.1316872
        k(   28) = (   0.5555556  -0.3333333   0.7777778), wk =   0.1316872
        k(   29) = (  -0.2222222   0.6666667   0.0000000), wk =   0.0658436
        k(   30) = (   0.6666667  -0.2222222   0.8888889), wk =   0.1316872
        k(   31) = (   0.5555556  -0.1111111   0.7777778), wk =   0.1316872
        k(   32) = (   0.4444444   0.0000000   0.6666667), wk =   0.0658436
        k(   33) = (   0.7777778  -0.1111111   1.0000000), wk =   0.0658436
        k(   34) = (   0.6666667  -0.0000000   0.8888889), wk =   0.0658436
        k(   35) = (   0.5555556  -0.1111111   1.0000000), wk =   0.0658436

     Dense  grid:    12627 G-vectors     FFT dimensions: (  36,  36,  36)

     Largest allocated arrays     est. size (Mb)     dimensions
        Kohn-Sham Wavefunctions         0.10 Mb     (    1596,    4)
        NL pseudopotentials             0.39 Mb     (    1596,   16)
        Each V/rho on FFT grid          0.71 Mb     (   46656)
        Each G-vector array             0.10 Mb     (   12627)
        G-vector shells                 0.00 Mb     (     177)
     Largest temporary arrays     est. size (Mb)     dimensions
        Auxiliary wavefunctions         0.39 Mb     (    1596,   16)
        Each subspace H/S matrix        0.00 Mb     (      16,   16)
        Each <psi_i|beta_j> matrix      0.00 Mb     (      16,    4)
        Arrays for rho mixing           5.70 Mb     (   46656,    8)

     Initial potential from superposition of free atoms

     starting charge    7.99900, renormalised to    8.00000
     Starting wfc are    8 randomized atomic wfcs
     Checking if some PAW data can be deallocated... 

     total cpu time spent up to now is        0.7 secs

     per-process dynamical memory:    14.0 Mb

     Self-consistent Calculation

     iteration #  1     ecut=    50.00 Ry     beta=0.70
     Davidson diagonalization with overlap
     ethr =  1.00E-02,  avg # of iterations =  2.0

     Threshold (ethr) on eigenvalues was too large:
     Diagonalizing with lowered threshold

     Davidson diagonalization with overlap
     ethr =  7.70E-04,  avg # of iterations =  1.0

     total cpu time spent up to now is        2.0 secs

     total energy              =     -89.28555413 Ry
     Harris-Foulkes estimate   =     -89.30743539 Ry
     estimated scf accuracy    <       0.06105365 Ry

     iteration #  2     ecut=    50.00 Ry     beta=0.70
     Davidson diagonalization with overlap
     ethr =  7.63E-04,  avg # of iterations =  1.0

     total cpu time spent up to now is        2.5 secs

     total energy              =     -89.28876286 Ry
     Harris-Foulkes estimate   =     -89.28916423 Ry
     estimated scf accuracy    <       0.00196047 Ry

     iteration #  3     ecut=    50.00 Ry     beta=0.70
     Davidson diagonalization with overlap
     ethr =  2.45E-05,  avg # of iterations =  2.7

     total cpu time spent up to now is        3.2 secs

     total energy              =     -89.28924904 Ry
     Harris-Foulkes estimate   =     -89.28929480 Ry
     estimated scf accuracy    <       0.00007833 Ry

     iteration #  4     ecut=    50.00 Ry     beta=0.70
     Davidson diagonalization with overlap
     ethr =  9.79E-07,  avg # of iterations =  2.1

     total cpu time spent up to now is        3.9 secs

     total energy              =     -89.28927112 Ry
     Harris-Foulkes estimate   =     -89.28927708 Ry
     estimated scf accuracy    <       0.00001120 Ry

     iteration #  5     ecut=    50.00 Ry     beta=0.70
     Davidson diagonalization with overlap
     ethr =  1.40E-07,  avg # of iterations =  2.1

     total cpu time spent up to now is        4.6 secs

     End of self-consistent calculation

          k = 0.0000 0.0000 0.0000 (  1591 PWs)   bands (ev):

    -5.8643   6.2547   6.2547   6.2547

          k =-0.1111 0.1111-0.1111 (  1552 PWs)   bands (ev):

    -5.6997   4.8890   6.0109   6.0109

          k =-0.2222 0.2222-0.2222 (  1564 PWs)   bands (ev):

    -5.2155   2.7792   5.5795   5.5795

          k =-0.3333 0.3333-0.3333 (  1591 PWs)   bands (ev):

    -4.4577   0.8325   5.2381   5.2381

          k =-0.4444 0.4444-0.4444 (  1574 PWs)   bands (ev):

    -3.6409  -0.5975   5.0611   5.0611

          k = 0.0000 0.2222 0.0000 (  1567 PWs)   bands (ev):

    -5.6444   5.1438   5.5566   5.5566

          k =-0.1111 0.3333-0.1111 (  1568 PWs)   bands (ev):

    -5.2648   3.4243   5.0738   5.2189

          k =-0.2222 0.4444-0.2222 (  1583 PWs)   bands (ev):

    -4.5896   1.4799   4.7025   4.7657

          k =-0.3333 0.5556-0.3333 (  1579 PWs)   bands (ev):

    -3.7402  -0.1467   4.2579   4.6855

          k = 0.5556-0.3333 0.5556 (  1579 PWs)   bands (ev):

    -3.3459  -0.7378   3.9916   4.8314

          k = 0.4444-0.2222 0.4444 (  1574 PWs)   bands (ev):

    -4.0272   0.3418   3.9524   5.1704

          k = 0.3333-0.1111 0.3333 (  1579 PWs)   bands (ev):

    -4.8461   2.1085   4.1828   5.6298

          k = 0.2222-0.0000 0.2222 (  1556 PWs)   bands (ev):

    -5.4277   3.9077   4.8424   6.0308

          k = 0.0000 0.4444 0.0000 (  1587 PWs)   bands (ev):

    -4.9906   3.2252   4.5407   4.5407

          k =-0.1111 0.5556-0.1111 (  1578 PWs)   bands (ev):

    -4.4096   1.8676   3.8956   4.1931

          k =-0.2222 0.6667-0.2222 (  1584 PWs)   bands (ev):

    -3.5909   0.3599   3.1348   4.0954

          k = 0.6667-0.2222 0.6667 (  1574 PWs)   bands (ev):

    -2.9121  -0.6136   2.6016   4.2560

          k = 0.5556-0.1111 0.5556 (  1580 PWs)   bands (ev):

    -3.3391  -0.0157   2.4095   4.6471

          k = 0.4444 0.0000 0.4444 (  1572 PWs)   bands (ev):

    -4.1840   1.2633   2.7954   5.1830

          k = 0.0000 0.6667 0.0000 (  1580 PWs)   bands (ev):

    -3.9232   1.2117   3.7840   3.7840

          k =-0.1111 0.7778-0.1111 (  1595 PWs)   bands (ev):

    -3.1686   0.1452   3.0239   3.6247

          k = 0.7778-0.1111 0.7778 (  1587 PWs)   bands (ev):

    -2.3507  -0.7722   2.0820   3.7353

          k = 0.6667-0.0000 0.6667 (  1568 PWs)   bands (ev):

    -2.5241  -0.5831   1.7053   4.0994

          k = 0.0000 0.8889 0.0000 (  1596 PWs)   bands (ev):

    -2.4816  -0.7345   3.3918   3.3918

          k = 0.8889 0.0000 0.8889 (  1586 PWs)   bands (ev):

    -1.6895  -1.5224   2.7404   3.4305

          k =-0.2222 0.4444 0.0000 (  1570 PWs)   bands (ev):

    -4.7854   2.4329   3.8139   5.0652

          k =-0.3333 0.5556-0.1111 (  1576 PWs)   bands (ev):

    -4.0332   0.9113   3.1992   4.6131

          k = 0.5556-0.3333 0.7778 (  1571 PWs)   bands (ev):

    -3.2120  -0.4145   3.0097   4.2790

          k =-0.2222 0.6667 0.0000 (  1582 PWs)   bands (ev):

    -3.7439   0.9014   3.0864   3.8013

          k = 0.6667-0.2222 0.8889 (  1588 PWs)   bands (ev):

    -2.8957  -0.2046   2.4007   3.4826

          k = 0.5556-0.1111 0.7778 (  1570 PWs)   bands (ev):

    -2.5157  -0.6459   2.0008   3.5991

          k = 0.4444 0.0000 0.6667 (  1579 PWs)   bands (ev):

    -3.2381   0.1761   2.1490   4.0505

          k = 0.7778-0.1111 1.0000 (  1590 PWs)   bands (ev):

    -2.3598  -0.7470   2.7923   3.0076

          k = 0.6667-0.0000 0.8889 (  1593 PWs)   bands (ev):

    -1.8175  -1.2192   2.0335   3.0983

          k = 0.5556-0.1111 1.0000 (  1585 PWs)   bands (ev):

    -2.0704  -0.8933   2.0746   2.7370

     highest occupied level (ev):     6.2547

!    total energy              =     -89.28927369 Ry
     Harris-Foulkes estimate   =     -89.28927382 Ry
     estimated scf accuracy    <       0.00000018 Ry

     total all-electron energy =     -1156.155402 Ry

     The total energy is the sum of the following terms:

     one-electron contribution =       5.92183131 Ry
     hartree contribution      =       1.07533669 Ry
     xc contribution           =     -12.19151759 Ry
     ewald contribution        =     -16.91634326 Ry
     one-center paw contrib.   =     -67.17858084 Ry

     convergence has been achieved in   5 iterations

     Forces acting on atoms (Ry/au):

     atom    1 type  1   force =     0.00000000    0.00000000    0.00000000
     atom    2 type  1   force =     0.00000000    0.00000000    0.00000000

     Total force =     0.000000     Total SCF correction =     0.000000


     entering subroutine stress ...

          total   stress  (Ry/bohr**3)                   (kbar)     P=    3.64
   0.00002475   0.00000000   0.00000000          3.64      0.00      0.00
   0.00000000   0.00002475  -0.00000000          0.00      3.64     -0.00
   0.00000000  -0.00000000   0.00002475          0.00     -0.00      3.64


     Writing output data file pwscf.save
 
     init_run     :      0.61s CPU      0.62s WALL (       1 calls)
     electrons    :      3.86s CPU      3.90s WALL (       1 calls)
     forces       :      0.05s CPU      0.05s WALL (       1 calls)
     stress       :      0.20s CPU      0.20s WALL (       1 calls)

     Called by init_run:
     wfcinit      :      0.37s CPU      0.38s WALL (       1 calls)
     potinit      :      0.02s CPU      0.02s WALL (       1 calls)

     Called by electrons:
     c_bands      :      3.05s CPU      3.08s WALL (       6 calls)
     sum_band     :      0.67s CPU      0.67s WALL (       6 calls)
     v_of_rho     :      0.02s CPU      0.02s WALL (       6 calls)
     newd         :      0.05s CPU      0.05s WALL (       6 calls)
     mix_rho      :      0.01s CPU      0.01s WALL (       6 calls)

     Called by c_bands:
     init_us_2    :      0.14s CPU      0.14s WALL (     525 calls)
     cegterg      :      2.84s CPU      2.85s WALL (     210 calls)

     Called by *egterg:
     h_psi        :      2.99s CPU      3.01s WALL (     623 calls)
     s_psi        :      0.03s CPU      0.03s WALL (     623 calls)
     g_psi        :      0.03s CPU      0.03s WALL (     378 calls)
     cdiaghg      :      0.01s CPU      0.02s WALL (     553 calls)

     Called by h_psi:
     add_vuspsi   :      0.03s CPU      0.03s WALL (     623 calls)

     General routines
     calbec       :      0.06s CPU      0.07s WALL (     903 calls)
     fft          :      0.04s CPU      0.04s WALL (      46 calls)
     fftw         :      3.11s CPU      3.12s WALL (    5840 calls)
     davcio       :      0.00s CPU      0.00s WALL (      35 calls)
 
     Parallel routines
     fft_scatter  :      0.19s CPU      0.20s WALL (    5886 calls)

     PAW routines
     PAW_pot      :      0.08s CPU      0.08s WALL (       6 calls)
     PAW_symme    :      0.00s CPU      0.00s WALL (      12 calls)
 
     PWSCF        :     4.92s CPU         5.05s WALL

 
   This run was terminated on:  15:51:32   1May2015            

=------------------------------------------------------------------------------=
   JOB DONE.
=------------------------------------------------------------------------------=
