
     Program PWSCF v.5.1 starts on  1May2015 at 15:51:37 

     This program is part of the open-source Quantum ESPRESSO suite
     for quantum simulation of materials; please cite
         "P. Giannozzi et al., J. Phys.:Condens. Matter 21 395502 (2009);
          URL http://www.quantum-espresso.org", 
     in publications or presentations arising from this work. More details at
     http://www.quantum-espresso.org/quote

     Parallel version (MPI), running on     1 processors
     Waiting for input...
     Reading input from standard input
Warning: card &IONS ignored
Warning: card / ignored
Warning: card &CELL ignored
Warning: card / ignored

     Current dimensions of program PWSCF are:
     Max number of different atomic species (ntypx) = 10
     Max number of k-points (npk) =  40000
     Max angular momentum in pseudopotentials (lmaxx) =  3
               file Si.pz-n-kjpaw_psl.0.1.UPF: wavefunction(s)  3S renormalized

     Subspace diagonalization in iterative solution of the eigenvalue problem:
     a serial algorithm will be used

 
     G-vector sticks info
     --------------------
     sticks:   dense  smooth     PW     G-vecs:    dense   smooth      PW
     Sum         721     721    211                12675    12675    2109
 


     bravais-lattice index     =            2
     lattice parameter (alat)  =      10.2100  a.u.
     unit-cell volume          =     266.0831 (a.u.)^3
     number of atoms/cell      =            2
     number of atomic types    =            1
     number of electrons       =         8.00
     number of Kohn-Sham states=            4
     kinetic-energy cutoff     =      50.0000  Ry
     charge density cutoff     =     200.0000  Ry
     convergence threshold     =      1.0E-06
     mixing beta               =       0.7000
     number of iterations used =            8  plain     mixing
     Exchange-correlation      =  SLA  PZ   NOGX NOGC ( 1  1  0  0 0)

     celldm(1)=  10.210000  celldm(2)=   0.000000  celldm(3)=   0.000000
     celldm(4)=   0.000000  celldm(5)=   0.000000  celldm(6)=   0.000000

     crystal axes: (cart. coord. in units of alat)
               a(1) = (  -0.500000   0.000000   0.500000 )  
               a(2) = (   0.000000   0.500000   0.500000 )  
               a(3) = (  -0.500000   0.500000   0.000000 )  

     reciprocal axes: (cart. coord. in units 2 pi/alat)
               b(1) = ( -1.000000 -1.000000  1.000000 )  
               b(2) = (  1.000000  1.000000  1.000000 )  
               b(3) = ( -1.000000  1.000000 -1.000000 )  


     PseudoPot. # 1 for Si read from file:
     ./Si.pz-n-kjpaw_psl.0.1.UPF
     MD5 check sum: 39d85f6d7c0899aba58824f54593099f
     Pseudo is Projector augmented-wave + core cor, Zval =  4.0
     Generated using "atomic" code by A. Dal Corso  v.5.0.2 svn rev. 9415
     Shape of augmentation charge: PSQ
     Using radial grid of 1141 points,  4 beta functions with: 
                l(1) =   0
                l(2) =   0
                l(3) =   1
                l(4) =   1
     Q(r) pseudized with 0 coefficients 


     atomic species   valence    mass     pseudopotential
        Si             4.00    28.05500     Si( 1.00)

     48 Sym. Ops., with inversion, found (24 have fractional translation)



   Cartesian axes

     site n.     atom                  positions (alat units)
         1           Si  tau(   1) = (   0.0000000   0.0000000   0.0000000  )
         2           Si  tau(   2) = (  -0.2500000   0.2500000   0.2500000  )

     number of k points=    35
                       cart. coord. in units 2pi/alat
        k(    1) = (   0.0000000   0.0000000   0.0000000), wk =   0.0027435
        k(    2) = (  -0.1111111   0.1111111  -0.1111111), wk =   0.0219479
        k(    3) = (  -0.2222222   0.2222222  -0.2222222), wk =   0.0219479
        k(    4) = (  -0.3333333   0.3333333  -0.3333333), wk =   0.0219479
        k(    5) = (  -0.4444444   0.4444444  -0.4444444), wk =   0.0219479
        k(    6) = (   0.0000000   0.2222222   0.0000000), wk =   0.0164609
        k(    7) = (  -0.1111111   0.3333333  -0.1111111), wk =   0.0658436
        k(    8) = (  -0.2222222   0.4444444  -0.2222222), wk =   0.0658436
        k(    9) = (  -0.3333333   0.5555556  -0.3333333), wk =   0.0658436
        k(   10) = (   0.5555556  -0.3333333   0.5555556), wk =   0.0658436
        k(   11) = (   0.4444444  -0.2222222   0.4444444), wk =   0.0658436
        k(   12) = (   0.3333333  -0.1111111   0.3333333), wk =   0.0658436
        k(   13) = (   0.2222222  -0.0000000   0.2222222), wk =   0.0329218
        k(   14) = (   0.0000000   0.4444444   0.0000000), wk =   0.0164609
        k(   15) = (  -0.1111111   0.5555556  -0.1111111), wk =   0.0658436
        k(   16) = (  -0.2222222   0.6666667  -0.2222222), wk =   0.0658436
        k(   17) = (   0.6666667  -0.2222222   0.6666667), wk =   0.0658436
        k(   18) = (   0.5555556  -0.1111111   0.5555556), wk =   0.0658436
        k(   19) = (   0.4444444   0.0000000   0.4444444), wk =   0.0329218
        k(   20) = (   0.0000000   0.6666667   0.0000000), wk =   0.0164609
        k(   21) = (  -0.1111111   0.7777778  -0.1111111), wk =   0.0658436
        k(   22) = (   0.7777778  -0.1111111   0.7777778), wk =   0.0658436
        k(   23) = (   0.6666667  -0.0000000   0.6666667), wk =   0.0329218
        k(   24) = (   0.0000000   0.8888889   0.0000000), wk =   0.0164609
        k(   25) = (   0.8888889   0.0000000   0.8888889), wk =   0.0329218
        k(   26) = (  -0.2222222   0.4444444   0.0000000), wk =   0.0658436
        k(   27) = (  -0.3333333   0.5555556  -0.1111111), wk =   0.1316872
        k(   28) = (   0.5555556  -0.3333333   0.7777778), wk =   0.1316872
        k(   29) = (  -0.2222222   0.6666667   0.0000000), wk =   0.0658436
        k(   30) = (   0.6666667  -0.2222222   0.8888889), wk =   0.1316872
        k(   31) = (   0.5555556  -0.1111111   0.7777778), wk =   0.1316872
        k(   32) = (   0.4444444   0.0000000   0.6666667), wk =   0.0658436
        k(   33) = (   0.7777778  -0.1111111   1.0000000), wk =   0.0658436
        k(   34) = (   0.6666667  -0.0000000   0.8888889), wk =   0.0658436
        k(   35) = (   0.5555556  -0.1111111   1.0000000), wk =   0.0658436

     Dense  grid:    12675 G-vectors     FFT dimensions: (  36,  36,  36)

     Largest allocated arrays     est. size (Mb)     dimensions
        Kohn-Sham Wavefunctions         0.10 Mb     (    1639,    4)
        NL pseudopotentials             0.40 Mb     (    1639,   16)
        Each V/rho on FFT grid          0.71 Mb     (   46656)
        Each G-vector array             0.10 Mb     (   12675)
        G-vector shells                 0.00 Mb     (     178)
     Largest temporary arrays     est. size (Mb)     dimensions
        Auxiliary wavefunctions         0.40 Mb     (    1639,   16)
        Each subspace H/S matrix        0.00 Mb     (      16,   16)
        Each <psi_i|beta_j> matrix      0.00 Mb     (      16,    4)
        Arrays for rho mixing           5.70 Mb     (   46656,    8)

     Initial potential from superposition of free atoms

     starting charge    7.99900, renormalised to    8.00000
     Starting wfc are    8 randomized atomic wfcs
     Checking if some PAW data can be deallocated... 

     total cpu time spent up to now is        0.8 secs

     per-process dynamical memory:    14.1 Mb

     Self-consistent Calculation

     iteration #  1     ecut=    50.00 Ry     beta=0.70
     Davidson diagonalization with overlap
     ethr =  1.00E-02,  avg # of iterations =  2.0

     Threshold (ethr) on eigenvalues was too large:
     Diagonalizing with lowered threshold

     Davidson diagonalization with overlap
     ethr =  7.62E-04,  avg # of iterations =  1.0

     total cpu time spent up to now is        2.0 secs

     total energy              =     -89.28564308 Ry
     Harris-Foulkes estimate   =     -89.30718975 Ry
     estimated scf accuracy    <       0.06044401 Ry

     iteration #  2     ecut=    50.00 Ry     beta=0.70
     Davidson diagonalization with overlap
     ethr =  7.56E-04,  avg # of iterations =  1.0

     total cpu time spent up to now is        2.5 secs

     total energy              =     -89.28878251 Ry
     Harris-Foulkes estimate   =     -89.28918131 Ry
     estimated scf accuracy    <       0.00196327 Ry

     iteration #  3     ecut=    50.00 Ry     beta=0.70
     Davidson diagonalization with overlap
     ethr =  2.45E-05,  avg # of iterations =  2.6

     total cpu time spent up to now is        3.2 secs

     total energy              =     -89.28926406 Ry
     Harris-Foulkes estimate   =     -89.28930968 Ry
     estimated scf accuracy    <       0.00007680 Ry

     iteration #  4     ecut=    50.00 Ry     beta=0.70
     Davidson diagonalization with overlap
     ethr =  9.60E-07,  avg # of iterations =  2.1

     total cpu time spent up to now is        3.9 secs

     total energy              =     -89.28928589 Ry
     Harris-Foulkes estimate   =     -89.28929162 Ry
     estimated scf accuracy    <       0.00001073 Ry

     iteration #  5     ecut=    50.00 Ry     beta=0.70
     Davidson diagonalization with overlap
     ethr =  1.34E-07,  avg # of iterations =  2.1

     total cpu time spent up to now is        4.7 secs

     End of self-consistent calculation

          k = 0.0000 0.0000 0.0000 (  1639 PWs)   bands (ev):

    -5.8859   6.1923   6.1923   6.1923

          k =-0.1111 0.1111-0.1111 (  1573 PWs)   bands (ev):

    -5.7221   4.8279   5.9499   5.9499

          k =-0.2222 0.2222-0.2222 (  1579 PWs)   bands (ev):

    -5.2404   2.7256   5.5205   5.5205

          k =-0.3333 0.3333-0.3333 (  1609 PWs)   bands (ev):

    -4.4868   0.7878   5.1803   5.1803

          k =-0.4444 0.4444-0.4444 (  1580 PWs)   bands (ev):

    -3.6760  -0.6338   5.0038   5.0038

          k = 0.0000 0.2222 0.0000 (  1575 PWs)   bands (ev):

    -5.6670   5.0759   5.4988   5.4988

          k =-0.1111 0.3333-0.1111 (  1583 PWs)   bands (ev):

    -5.2894   3.3654   5.0184   5.1595

          k =-0.2222 0.4444-0.2222 (  1591 PWs)   bands (ev):

    -4.6178   1.4305   4.6449   4.7114

          k =-0.3333 0.5556-0.3333 (  1581 PWs)   bands (ev):

    -3.7739  -0.1870   4.2023   4.6310

          k = 0.5556-0.3333 0.5556 (  1579 PWs)   bands (ev):

    -3.3831  -0.7738   3.9379   4.7757

          k = 0.4444-0.2222 0.4444 (  1590 PWs)   bands (ev):

    -4.0590   0.2985   3.8999   5.1127

          k = 0.3333-0.1111 0.3333 (  1583 PWs)   bands (ev):

    -4.8729   2.0559   4.1308   5.5697

          k = 0.2222-0.0000 0.2222 (  1576 PWs)   bands (ev):

    -5.4515   3.8466   4.7891   5.9687

          k = 0.0000 0.4444 0.0000 (  1587 PWs)   bands (ev):

    -5.0166   3.1600   4.4883   4.4883

          k =-0.1111 0.5556-0.1111 (  1596 PWs)   bands (ev):

    -4.4386   1.8098   3.8454   4.1422

          k =-0.2222 0.6667-0.2222 (  1605 PWs)   bands (ev):

    -3.6248   0.3116   3.0877   4.0446

          k = 0.6667-0.2222 0.6667 (  1580 PWs)   bands (ev):

    -2.9513  -0.6545   2.5571   4.2040

          k = 0.5556-0.1111 0.5556 (  1584 PWs)   bands (ev):

    -3.3750  -0.0612   2.3674   4.5929

          k = 0.4444 0.0000 0.4444 (  1572 PWs)   bands (ev):

    -4.2145   1.2100   2.7533   5.1255

          k = 0.0000 0.6667 0.0000 (  1580 PWs)   bands (ev):

    -3.9546   1.1543   3.7351   3.7351

          k =-0.1111 0.7778-0.1111 (  1603 PWs)   bands (ev):

    -3.2041   0.0929   2.9805   3.5765

          k = 0.7778-0.1111 0.7778 (  1599 PWs)   bands (ev):

    -2.3918  -0.8192   2.0451   3.6863

          k = 0.6667-0.0000 0.6667 (  1596 PWs)   bands (ev):

    -2.5650  -0.6301   1.6709   4.0483

          k = 0.0000 0.8889 0.0000 (  1604 PWs)   bands (ev):

    -2.5204  -0.7824   3.3447   3.3447

          k = 0.8889 0.0000 0.8889 (  1596 PWs)   bands (ev):

    -1.7333  -1.5660   2.6988   3.3832

          k =-0.2222 0.4444 0.0000 (  1587 PWs)   bands (ev):

    -4.8125   2.3744   3.7661   5.0080

          k =-0.3333 0.5556-0.1111 (  1593 PWs)   bands (ev):

    -4.0645   0.8613   3.1522   4.5593

          k = 0.5556-0.3333 0.7778 (  1588 PWs)   bands (ev):

    -3.2491  -0.4555   2.9617   4.2278

          k =-0.2222 0.6667 0.0000 (  1590 PWs)   bands (ev):

    -3.7765   0.8461   3.0423   3.7533

          k = 0.6667-0.2222 0.8889 (  1588 PWs)   bands (ev):

    -2.9335  -0.2537   2.3603   3.4370

          k = 0.5556-0.1111 0.7778 (  1587 PWs)   bands (ev):

    -2.5568  -0.6913   1.9629   3.5526

          k = 0.4444 0.0000 0.6667 (  1581 PWs)   bands (ev):

    -3.2741   0.1254   2.1109   4.0009

          k = 0.7778-0.1111 1.0000 (  1590 PWs)   bands (ev):

    -2.3999  -0.7955   2.7502   2.9647

          k = 0.6667-0.0000 0.8889 (  1601 PWs)   bands (ev):

    -1.8620  -1.2647   1.9976   3.0546

          k = 0.5556-0.1111 1.0000 (  1599 PWs)   bands (ev):

    -2.1132  -0.9414   2.0381   2.6968

     highest occupied level (ev):     6.1923

!    total energy              =     -89.28928835 Ry
     Harris-Foulkes estimate   =     -89.28928848 Ry
     estimated scf accuracy    <       0.00000018 Ry

     total all-electron energy =     -1156.155416 Ry

     The total energy is the sum of the following terms:

     one-electron contribution =       5.87498223 Ry
     hartree contribution      =       1.08041000 Ry
     xc contribution           =     -12.18409514 Ry
     ewald contribution        =     -16.88320644 Ry
     one-center paw contrib.   =     -67.17737899 Ry

     convergence has been achieved in   5 iterations

     Forces acting on atoms (Ry/au):

     atom    1 type  1   force =     0.00000000    0.00000000   -0.00000000
     atom    2 type  1   force =    -0.00000000   -0.00000000    0.00000000

     Total force =     0.000000     Total SCF correction =     0.000000


     entering subroutine stress ...

          total   stress  (Ry/bohr**3)                   (kbar)     P=   -2.08
  -0.00001416  -0.00000000  -0.00000000         -2.08     -0.00     -0.00
  -0.00000000  -0.00001416   0.00000000         -0.00     -2.08      0.00
  -0.00000000   0.00000000  -0.00001416         -0.00      0.00     -2.08


     Writing output data file pwscf.save
 
     init_run     :      0.61s CPU      0.62s WALL (       1 calls)
     electrons    :      3.88s CPU      3.92s WALL (       1 calls)
     forces       :      0.05s CPU      0.05s WALL (       1 calls)
     stress       :      0.21s CPU      0.20s WALL (       1 calls)

     Called by init_run:
     wfcinit      :      0.37s CPU      0.38s WALL (       1 calls)
     potinit      :      0.02s CPU      0.02s WALL (       1 calls)

     Called by electrons:
     c_bands      :      3.06s CPU      3.10s WALL (       6 calls)
     sum_band     :      0.67s CPU      0.68s WALL (       6 calls)
     v_of_rho     :      0.02s CPU      0.02s WALL (       6 calls)
     newd         :      0.05s CPU      0.05s WALL (       6 calls)
     mix_rho      :      0.01s CPU      0.01s WALL (       6 calls)

     Called by c_bands:
     init_us_2    :      0.14s CPU      0.14s WALL (     525 calls)
     cegterg      :      2.83s CPU      2.86s WALL (     210 calls)

     Called by *egterg:
     h_psi        :      2.97s CPU      3.01s WALL (     623 calls)
     s_psi        :      0.03s CPU      0.03s WALL (     623 calls)
     g_psi        :      0.02s CPU      0.03s WALL (     378 calls)
     cdiaghg      :      0.02s CPU      0.02s WALL (     553 calls)

     Called by h_psi:
     add_vuspsi   :      0.02s CPU      0.03s WALL (     623 calls)

     General routines
     calbec       :      0.07s CPU      0.07s WALL (     903 calls)
     fft          :      0.04s CPU      0.04s WALL (      46 calls)
     fftw         :      3.12s CPU      3.12s WALL (    5834 calls)
     davcio       :      0.00s CPU      0.00s WALL (      35 calls)
 
     Parallel routines
     fft_scatter  :      0.20s CPU      0.20s WALL (    5880 calls)

     PAW routines
     PAW_pot      :      0.08s CPU      0.08s WALL (       6 calls)
     PAW_symme    :      0.00s CPU      0.00s WALL (      12 calls)
 
     PWSCF        :     4.93s CPU         5.07s WALL

 
   This run was terminated on:  15:51:42   1May2015            

=------------------------------------------------------------------------------=
   JOB DONE.
=------------------------------------------------------------------------------=
