
     Program PWSCF v.5.1 starts on  1May2015 at 15:51: 6 

     This program is part of the open-source Quantum ESPRESSO suite
     for quantum simulation of materials; please cite
         "P. Giannozzi et al., J. Phys.:Condens. Matter 21 395502 (2009);
          URL http://www.quantum-espresso.org", 
     in publications or presentations arising from this work. More details at
     http://www.quantum-espresso.org/quote

     Parallel version (MPI), running on     1 processors
     Waiting for input...
     Reading input from standard input
Warning: card &IONS ignored
Warning: card / ignored
Warning: card &CELL ignored
Warning: card / ignored

     Current dimensions of program PWSCF are:
     Max number of different atomic species (ntypx) = 10
     Max number of k-points (npk) =  40000
     Max angular momentum in pseudopotentials (lmaxx) =  3
               file Si.pz-n-kjpaw_psl.0.1.UPF: wavefunction(s)  3S renormalized

     Subspace diagonalization in iterative solution of the eigenvalue problem:
     a serial algorithm will be used

 
     G-vector sticks info
     --------------------
     sticks:   dense  smooth     PW     G-vecs:    dense   smooth      PW
     Sum         703     703    211                12387    12387    2109
 


     bravais-lattice index     =            2
     lattice parameter (alat)  =      10.1500  a.u.
     unit-cell volume          =     261.4196 (a.u.)^3
     number of atoms/cell      =            2
     number of atomic types    =            1
     number of electrons       =         8.00
     number of Kohn-Sham states=            4
     kinetic-energy cutoff     =      50.0000  Ry
     charge density cutoff     =     200.0000  Ry
     convergence threshold     =      1.0E-06
     mixing beta               =       0.7000
     number of iterations used =            8  plain     mixing
     Exchange-correlation      =  SLA  PZ   NOGX NOGC ( 1  1  0  0 0)

     celldm(1)=  10.150000  celldm(2)=   0.000000  celldm(3)=   0.000000
     celldm(4)=   0.000000  celldm(5)=   0.000000  celldm(6)=   0.000000

     crystal axes: (cart. coord. in units of alat)
               a(1) = (  -0.500000   0.000000   0.500000 )  
               a(2) = (   0.000000   0.500000   0.500000 )  
               a(3) = (  -0.500000   0.500000   0.000000 )  

     reciprocal axes: (cart. coord. in units 2 pi/alat)
               b(1) = ( -1.000000 -1.000000  1.000000 )  
               b(2) = (  1.000000  1.000000  1.000000 )  
               b(3) = ( -1.000000  1.000000 -1.000000 )  


     PseudoPot. # 1 for Si read from file:
     ./Si.pz-n-kjpaw_psl.0.1.UPF
     MD5 check sum: 39d85f6d7c0899aba58824f54593099f
     Pseudo is Projector augmented-wave + core cor, Zval =  4.0
     Generated using "atomic" code by A. Dal Corso  v.5.0.2 svn rev. 9415
     Shape of augmentation charge: PSQ
     Using radial grid of 1141 points,  4 beta functions with: 
                l(1) =   0
                l(2) =   0
                l(3) =   1
                l(4) =   1
     Q(r) pseudized with 0 coefficients 


     atomic species   valence    mass     pseudopotential
        Si             4.00    28.05500     Si( 1.00)

     48 Sym. Ops., with inversion, found (24 have fractional translation)



   Cartesian axes

     site n.     atom                  positions (alat units)
         1           Si  tau(   1) = (   0.0000000   0.0000000   0.0000000  )
         2           Si  tau(   2) = (  -0.2500000   0.2500000   0.2500000  )

     number of k points=    35
                       cart. coord. in units 2pi/alat
        k(    1) = (   0.0000000   0.0000000   0.0000000), wk =   0.0027435
        k(    2) = (  -0.1111111   0.1111111  -0.1111111), wk =   0.0219479
        k(    3) = (  -0.2222222   0.2222222  -0.2222222), wk =   0.0219479
        k(    4) = (  -0.3333333   0.3333333  -0.3333333), wk =   0.0219479
        k(    5) = (  -0.4444444   0.4444444  -0.4444444), wk =   0.0219479
        k(    6) = (   0.0000000   0.2222222   0.0000000), wk =   0.0164609
        k(    7) = (  -0.1111111   0.3333333  -0.1111111), wk =   0.0658436
        k(    8) = (  -0.2222222   0.4444444  -0.2222222), wk =   0.0658436
        k(    9) = (  -0.3333333   0.5555556  -0.3333333), wk =   0.0658436
        k(   10) = (   0.5555556  -0.3333333   0.5555556), wk =   0.0658436
        k(   11) = (   0.4444444  -0.2222222   0.4444444), wk =   0.0658436
        k(   12) = (   0.3333333  -0.1111111   0.3333333), wk =   0.0658436
        k(   13) = (   0.2222222  -0.0000000   0.2222222), wk =   0.0329218
        k(   14) = (   0.0000000   0.4444444   0.0000000), wk =   0.0164609
        k(   15) = (  -0.1111111   0.5555556  -0.1111111), wk =   0.0658436
        k(   16) = (  -0.2222222   0.6666667  -0.2222222), wk =   0.0658436
        k(   17) = (   0.6666667  -0.2222222   0.6666667), wk =   0.0658436
        k(   18) = (   0.5555556  -0.1111111   0.5555556), wk =   0.0658436
        k(   19) = (   0.4444444   0.0000000   0.4444444), wk =   0.0329218
        k(   20) = (   0.0000000   0.6666667   0.0000000), wk =   0.0164609
        k(   21) = (  -0.1111111   0.7777778  -0.1111111), wk =   0.0658436
        k(   22) = (   0.7777778  -0.1111111   0.7777778), wk =   0.0658436
        k(   23) = (   0.6666667  -0.0000000   0.6666667), wk =   0.0329218
        k(   24) = (   0.0000000   0.8888889   0.0000000), wk =   0.0164609
        k(   25) = (   0.8888889   0.0000000   0.8888889), wk =   0.0329218
        k(   26) = (  -0.2222222   0.4444444   0.0000000), wk =   0.0658436
        k(   27) = (  -0.3333333   0.5555556  -0.1111111), wk =   0.1316872
        k(   28) = (   0.5555556  -0.3333333   0.7777778), wk =   0.1316872
        k(   29) = (  -0.2222222   0.6666667   0.0000000), wk =   0.0658436
        k(   30) = (   0.6666667  -0.2222222   0.8888889), wk =   0.1316872
        k(   31) = (   0.5555556  -0.1111111   0.7777778), wk =   0.1316872
        k(   32) = (   0.4444444   0.0000000   0.6666667), wk =   0.0658436
        k(   33) = (   0.7777778  -0.1111111   1.0000000), wk =   0.0658436
        k(   34) = (   0.6666667  -0.0000000   0.8888889), wk =   0.0658436
        k(   35) = (   0.5555556  -0.1111111   1.0000000), wk =   0.0658436

     Dense  grid:    12387 G-vectors     FFT dimensions: (  36,  36,  36)

     Largest allocated arrays     est. size (Mb)     dimensions
        Kohn-Sham Wavefunctions         0.10 Mb     (    1580,    4)
        NL pseudopotentials             0.39 Mb     (    1580,   16)
        Each V/rho on FFT grid          0.71 Mb     (   46656)
        Each G-vector array             0.09 Mb     (   12387)
        G-vector shells                 0.00 Mb     (     175)
     Largest temporary arrays     est. size (Mb)     dimensions
        Auxiliary wavefunctions         0.39 Mb     (    1580,   16)
        Each subspace H/S matrix        0.00 Mb     (      16,   16)
        Each <psi_i|beta_j> matrix      0.00 Mb     (      16,    4)
        Arrays for rho mixing           5.70 Mb     (   46656,    8)

     Initial potential from superposition of free atoms

     starting charge    7.99900, renormalised to    8.00000
     Starting wfc are    8 randomized atomic wfcs
     Checking if some PAW data can be deallocated... 

     total cpu time spent up to now is        0.7 secs

     per-process dynamical memory:    13.9 Mb

     Self-consistent Calculation

     iteration #  1     ecut=    50.00 Ry     beta=0.70
     Davidson diagonalization with overlap
     ethr =  1.00E-02,  avg # of iterations =  2.0

     Threshold (ethr) on eigenvalues was too large:
     Diagonalizing with lowered threshold

     Davidson diagonalization with overlap
     ethr =  7.86E-04,  avg # of iterations =  1.0

     total cpu time spent up to now is        2.0 secs

     total energy              =     -89.28515475 Ry
     Harris-Foulkes estimate   =     -89.30773025 Ry
     estimated scf accuracy    <       0.06232073 Ry

     iteration #  2     ecut=    50.00 Ry     beta=0.70
     Davidson diagonalization with overlap
     ethr =  7.79E-04,  avg # of iterations =  1.0

     total cpu time spent up to now is        2.5 secs

     total energy              =     -89.28852991 Ry
     Harris-Foulkes estimate   =     -89.28892551 Ry
     estimated scf accuracy    <       0.00195608 Ry

     iteration #  3     ecut=    50.00 Ry     beta=0.70
     Davidson diagonalization with overlap
     ethr =  2.45E-05,  avg # of iterations =  2.6

     total cpu time spent up to now is        3.2 secs

     total energy              =     -89.28904193 Ry
     Harris-Foulkes estimate   =     -89.28908981 Ry
     estimated scf accuracy    <       0.00008081 Ry

     iteration #  4     ecut=    50.00 Ry     beta=0.70
     Davidson diagonalization with overlap
     ethr =  1.01E-06,  avg # of iterations =  2.1

     total cpu time spent up to now is        4.0 secs

     total energy              =     -89.28906455 Ry
     Harris-Foulkes estimate   =     -89.28907075 Ry
     estimated scf accuracy    <       0.00001166 Ry

     iteration #  5     ecut=    50.00 Ry     beta=0.70
     Davidson diagonalization with overlap
     ethr =  1.46E-07,  avg # of iterations =  2.1

     total cpu time spent up to now is        4.7 secs

     End of self-consistent calculation

          k = 0.0000 0.0000 0.0000 (  1471 PWs)   bands (ev):

    -5.8207   6.3810   6.3810   6.3810

          k =-0.1111 0.1111-0.1111 (  1534 PWs)   bands (ev):

    -5.6544   5.0122   6.1342   6.1342

          k =-0.2222 0.2222-0.2222 (  1540 PWs)   bands (ev):

    -5.1652   2.8871   5.6989   5.6989

          k =-0.3333 0.3333-0.3333 (  1540 PWs)   bands (ev):

    -4.3987   0.9225   5.3551   5.3551

          k =-0.4444 0.4444-0.4444 (  1544 PWs)   bands (ev):

    -3.5700  -0.5244   5.1771   5.1771

          k = 0.0000 0.2222 0.0000 (  1531 PWs)   bands (ev):

    -5.5986   5.2805   5.6733   5.6733

          k =-0.1111 0.3333-0.1111 (  1545 PWs)   bands (ev):

    -5.2151   3.5430   5.1857   5.3390

          k =-0.2222 0.4444-0.2222 (  1571 PWs)   bands (ev):

    -4.5325   1.5794   4.8191   4.8754

          k =-0.3333 0.5556-0.3333 (  1563 PWs)   bands (ev):

    -3.6720  -0.0654   4.3702   4.7956

          k = 0.5556-0.3333 0.5556 (  1546 PWs)   bands (ev):

    -3.2707  -0.6653   4.1003   4.9440

          k = 0.4444-0.2222 0.4444 (  1562 PWs)   bands (ev):

    -3.9631   0.4290   4.0586   5.2871

          k = 0.3333-0.1111 0.3333 (  1562 PWs)   bands (ev):

    -4.7918   2.2146   4.2879   5.7515

          k = 0.2222-0.0000 0.2222 (  1550 PWs)   bands (ev):

    -5.3797   4.0308   4.9501   6.1563

          k = 0.0000 0.4444 0.0000 (  1559 PWs)   bands (ev):

    -4.9382   3.3567   4.6467   4.6467

          k =-0.1111 0.5556-0.1111 (  1560 PWs)   bands (ev):

    -4.3510   1.9840   3.9971   4.2960

          k =-0.2222 0.6667-0.2222 (  1565 PWs)   bands (ev):

    -3.5227   0.4573   3.2303   4.1980

          k = 0.6667-0.2222 0.6667 (  1561 PWs)   bands (ev):

    -2.8329  -0.5312   2.6916   4.3609

          k = 0.5556-0.1111 0.5556 (  1562 PWs)   bands (ev):

    -3.2667   0.0760   2.4948   4.7569

          k = 0.4444 0.0000 0.4444 (  1556 PWs)   bands (ev):

    -4.1224   1.3709   2.8807   5.2992

          k = 0.0000 0.6667 0.0000 (  1580 PWs)   bands (ev):

    -3.8598   1.3275   3.8828   3.8828

          k =-0.1111 0.7778-0.1111 (  1575 PWs)   bands (ev):

    -3.0969   0.2509   3.1117   3.7222

          k = 0.7778-0.1111 0.7778 (  1566 PWs)   bands (ev):

    -2.2676  -0.6774   2.1565   3.8343

          k = 0.6667-0.0000 0.6667 (  1568 PWs)   bands (ev):

    -2.4414  -0.4882   1.7747   4.2026

          k = 0.0000 0.8889 0.0000 (  1576 PWs)   bands (ev):

    -2.4031  -0.6379   3.4871   3.4871

          k = 0.8889 0.0000 0.8889 (  1572 PWs)   bands (ev):

    -1.6011  -1.4343   2.8245   3.5263

          k =-0.2222 0.4444 0.0000 (  1556 PWs)   bands (ev):

    -4.7307   2.5507   3.9107   5.1808

          k =-0.3333 0.5556-0.1111 (  1564 PWs)   bands (ev):

    -3.9699   1.0120   3.2943   4.7219

          k = 0.5556-0.3333 0.7778 (  1556 PWs)   bands (ev):

    -3.1370  -0.3319   3.1069   4.3825

          k =-0.2222 0.6667 0.0000 (  1562 PWs)   bands (ev):

    -3.6781   1.0130   3.1755   3.8984

          k = 0.6667-0.2222 0.8889 (  1561 PWs)   bands (ev):

    -2.8192  -0.1055   2.4826   3.5748

          k = 0.5556-0.1111 0.7778 (  1557 PWs)   bands (ev):

    -2.4326  -0.5543   2.0776   3.6933

          k = 0.4444 0.0000 0.6667 (  1565 PWs)   bands (ev):

    -3.1653   0.2782   2.2259   4.1509

          k = 0.7778-0.1111 1.0000 (  1565 PWs)   bands (ev):

    -2.2791  -0.6491   2.8776   3.0942

          k = 0.6667-0.0000 0.8889 (  1570 PWs)   bands (ev):

    -1.7275  -1.1272   2.1060   3.1865

          k = 0.5556-0.1111 1.0000 (  1572 PWs)   bands (ev):

    -1.9839  -0.7960   2.1484   2.8181

     highest occupied level (ev):     6.3810

!    total energy              =     -89.28906719 Ry
     Harris-Foulkes estimate   =     -89.28906733 Ry
     estimated scf accuracy    <       0.00000018 Ry

     total all-electron energy =     -1156.155195 Ry

     The total energy is the sum of the following terms:

     one-electron contribution =       6.01628482 Ry
     hartree contribution      =       1.06520169 Ry
     xc contribution           =     -12.20651037 Ry
     ewald contribution        =     -16.98300865 Ry
     one-center paw contrib.   =     -67.18103469 Ry

     convergence has been achieved in   5 iterations

     Forces acting on atoms (Ry/au):

     atom    1 type  1   force =     0.00000000    0.00000000    0.00000000
     atom    2 type  1   force =     0.00000000    0.00000000   -0.00000000

     Total force =     0.000000     Total SCF correction =     0.000000


     entering subroutine stress ...

          total   stress  (Ry/bohr**3)                   (kbar)     P=   15.57
   0.00010581  -0.00000000  -0.00000000         15.57     -0.00     -0.00
  -0.00000000   0.00010581   0.00000000         -0.00     15.57      0.00
  -0.00000000   0.00000000   0.00010581         -0.00      0.00     15.57


     Writing output data file pwscf.save
 
     init_run     :      0.61s CPU      0.62s WALL (       1 calls)
     electrons    :      3.90s CPU      3.94s WALL (       1 calls)
     forces       :      0.05s CPU      0.05s WALL (       1 calls)
     stress       :      0.20s CPU      0.20s WALL (       1 calls)

     Called by init_run:
     wfcinit      :      0.37s CPU      0.37s WALL (       1 calls)
     potinit      :      0.02s CPU      0.02s WALL (       1 calls)

     Called by electrons:
     c_bands      :      3.09s CPU      3.12s WALL (       6 calls)
     sum_band     :      0.67s CPU      0.67s WALL (       6 calls)
     v_of_rho     :      0.02s CPU      0.02s WALL (       6 calls)
     newd         :      0.05s CPU      0.05s WALL (       6 calls)
     mix_rho      :      0.01s CPU      0.01s WALL (       6 calls)

     Called by c_bands:
     init_us_2    :      0.14s CPU      0.14s WALL (     525 calls)
     cegterg      :      2.87s CPU      2.90s WALL (     210 calls)

     Called by *egterg:
     h_psi        :      3.04s CPU      3.05s WALL (     622 calls)
     s_psi        :      0.03s CPU      0.03s WALL (     622 calls)
     g_psi        :      0.02s CPU      0.03s WALL (     377 calls)
     cdiaghg      :      0.02s CPU      0.02s WALL (     552 calls)

     Called by h_psi:
     add_vuspsi   :      0.04s CPU      0.03s WALL (     622 calls)

     General routines
     calbec       :      0.06s CPU      0.07s WALL (     902 calls)
     fft          :      0.04s CPU      0.04s WALL (      46 calls)
     fftw         :      3.16s CPU      3.16s WALL (    5838 calls)
     davcio       :      0.00s CPU      0.00s WALL (      35 calls)
 
     Parallel routines
     fft_scatter  :      0.21s CPU      0.20s WALL (    5884 calls)

     PAW routines
     PAW_pot      :      0.08s CPU      0.08s WALL (       6 calls)
     PAW_symme    :      0.00s CPU      0.00s WALL (      12 calls)
 
     PWSCF        :     4.95s CPU         5.09s WALL

 
   This run was terminated on:  15:51:11   1May2015            

=------------------------------------------------------------------------------=
   JOB DONE.
=------------------------------------------------------------------------------=
