
     Program PWSCF v.5.1 starts on  1May2015 at 15:51:32 

     This program is part of the open-source Quantum ESPRESSO suite
     for quantum simulation of materials; please cite
         "P. Giannozzi et al., J. Phys.:Condens. Matter 21 395502 (2009);
          URL http://www.quantum-espresso.org", 
     in publications or presentations arising from this work. More details at
     http://www.quantum-espresso.org/quote

     Parallel version (MPI), running on     1 processors
     Waiting for input...
     Reading input from standard input
Warning: card &IONS ignored
Warning: card / ignored
Warning: card &CELL ignored
Warning: card / ignored

     Current dimensions of program PWSCF are:
     Max number of different atomic species (ntypx) = 10
     Max number of k-points (npk) =  40000
     Max angular momentum in pseudopotentials (lmaxx) =  3
               file Si.pz-n-kjpaw_psl.0.1.UPF: wavefunction(s)  3S renormalized

     Subspace diagonalization in iterative solution of the eigenvalue problem:
     a serial algorithm will be used

 
     G-vector sticks info
     --------------------
     sticks:   dense  smooth     PW     G-vecs:    dense   smooth      PW
     Sum         721     721    211                12627    12627    2109
 


     bravais-lattice index     =            2
     lattice parameter (alat)  =      10.2000  a.u.
     unit-cell volume          =     265.3020 (a.u.)^3
     number of atoms/cell      =            2
     number of atomic types    =            1
     number of electrons       =         8.00
     number of Kohn-Sham states=            4
     kinetic-energy cutoff     =      50.0000  Ry
     charge density cutoff     =     200.0000  Ry
     convergence threshold     =      1.0E-06
     mixing beta               =       0.7000
     number of iterations used =            8  plain     mixing
     Exchange-correlation      =  SLA  PZ   NOGX NOGC ( 1  1  0  0 0)

     celldm(1)=  10.200000  celldm(2)=   0.000000  celldm(3)=   0.000000
     celldm(4)=   0.000000  celldm(5)=   0.000000  celldm(6)=   0.000000

     crystal axes: (cart. coord. in units of alat)
               a(1) = (  -0.500000   0.000000   0.500000 )  
               a(2) = (   0.000000   0.500000   0.500000 )  
               a(3) = (  -0.500000   0.500000   0.000000 )  

     reciprocal axes: (cart. coord. in units 2 pi/alat)
               b(1) = ( -1.000000 -1.000000  1.000000 )  
               b(2) = (  1.000000  1.000000  1.000000 )  
               b(3) = ( -1.000000  1.000000 -1.000000 )  


     PseudoPot. # 1 for Si read from file:
     ./Si.pz-n-kjpaw_psl.0.1.UPF
     MD5 check sum: 39d85f6d7c0899aba58824f54593099f
     Pseudo is Projector augmented-wave + core cor, Zval =  4.0
     Generated using "atomic" code by A. Dal Corso  v.5.0.2 svn rev. 9415
     Shape of augmentation charge: PSQ
     Using radial grid of 1141 points,  4 beta functions with: 
                l(1) =   0
                l(2) =   0
                l(3) =   1
                l(4) =   1
     Q(r) pseudized with 0 coefficients 


     atomic species   valence    mass     pseudopotential
        Si             4.00    28.05500     Si( 1.00)

     48 Sym. Ops., with inversion, found (24 have fractional translation)



   Cartesian axes

     site n.     atom                  positions (alat units)
         1           Si  tau(   1) = (   0.0000000   0.0000000   0.0000000  )
         2           Si  tau(   2) = (  -0.2500000   0.2500000   0.2500000  )

     number of k points=    35
                       cart. coord. in units 2pi/alat
        k(    1) = (   0.0000000   0.0000000   0.0000000), wk =   0.0027435
        k(    2) = (  -0.1111111   0.1111111  -0.1111111), wk =   0.0219479
        k(    3) = (  -0.2222222   0.2222222  -0.2222222), wk =   0.0219479
        k(    4) = (  -0.3333333   0.3333333  -0.3333333), wk =   0.0219479
        k(    5) = (  -0.4444444   0.4444444  -0.4444444), wk =   0.0219479
        k(    6) = (   0.0000000   0.2222222   0.0000000), wk =   0.0164609
        k(    7) = (  -0.1111111   0.3333333  -0.1111111), wk =   0.0658436
        k(    8) = (  -0.2222222   0.4444444  -0.2222222), wk =   0.0658436
        k(    9) = (  -0.3333333   0.5555556  -0.3333333), wk =   0.0658436
        k(   10) = (   0.5555556  -0.3333333   0.5555556), wk =   0.0658436
        k(   11) = (   0.4444444  -0.2222222   0.4444444), wk =   0.0658436
        k(   12) = (   0.3333333  -0.1111111   0.3333333), wk =   0.0658436
        k(   13) = (   0.2222222  -0.0000000   0.2222222), wk =   0.0329218
        k(   14) = (   0.0000000   0.4444444   0.0000000), wk =   0.0164609
        k(   15) = (  -0.1111111   0.5555556  -0.1111111), wk =   0.0658436
        k(   16) = (  -0.2222222   0.6666667  -0.2222222), wk =   0.0658436
        k(   17) = (   0.6666667  -0.2222222   0.6666667), wk =   0.0658436
        k(   18) = (   0.5555556  -0.1111111   0.5555556), wk =   0.0658436
        k(   19) = (   0.4444444   0.0000000   0.4444444), wk =   0.0329218
        k(   20) = (   0.0000000   0.6666667   0.0000000), wk =   0.0164609
        k(   21) = (  -0.1111111   0.7777778  -0.1111111), wk =   0.0658436
        k(   22) = (   0.7777778  -0.1111111   0.7777778), wk =   0.0658436
        k(   23) = (   0.6666667  -0.0000000   0.6666667), wk =   0.0329218
        k(   24) = (   0.0000000   0.8888889   0.0000000), wk =   0.0164609
        k(   25) = (   0.8888889   0.0000000   0.8888889), wk =   0.0329218
        k(   26) = (  -0.2222222   0.4444444   0.0000000), wk =   0.0658436
        k(   27) = (  -0.3333333   0.5555556  -0.1111111), wk =   0.1316872
        k(   28) = (   0.5555556  -0.3333333   0.7777778), wk =   0.1316872
        k(   29) = (  -0.2222222   0.6666667   0.0000000), wk =   0.0658436
        k(   30) = (   0.6666667  -0.2222222   0.8888889), wk =   0.1316872
        k(   31) = (   0.5555556  -0.1111111   0.7777778), wk =   0.1316872
        k(   32) = (   0.4444444   0.0000000   0.6666667), wk =   0.0658436
        k(   33) = (   0.7777778  -0.1111111   1.0000000), wk =   0.0658436
        k(   34) = (   0.6666667  -0.0000000   0.8888889), wk =   0.0658436
        k(   35) = (   0.5555556  -0.1111111   1.0000000), wk =   0.0658436

     Dense  grid:    12627 G-vectors     FFT dimensions: (  36,  36,  36)

     Largest allocated arrays     est. size (Mb)     dimensions
        Kohn-Sham Wavefunctions         0.10 Mb     (    1596,    4)
        NL pseudopotentials             0.39 Mb     (    1596,   16)
        Each V/rho on FFT grid          0.71 Mb     (   46656)
        Each G-vector array             0.10 Mb     (   12627)
        G-vector shells                 0.00 Mb     (     177)
     Largest temporary arrays     est. size (Mb)     dimensions
        Auxiliary wavefunctions         0.39 Mb     (    1596,   16)
        Each subspace H/S matrix        0.00 Mb     (      16,   16)
        Each <psi_i|beta_j> matrix      0.00 Mb     (      16,    4)
        Arrays for rho mixing           5.70 Mb     (   46656,    8)

     Initial potential from superposition of free atoms

     starting charge    7.99900, renormalised to    8.00000
     Starting wfc are    8 randomized atomic wfcs
     Checking if some PAW data can be deallocated... 

     total cpu time spent up to now is        0.7 secs

     per-process dynamical memory:    14.0 Mb

     Self-consistent Calculation

     iteration #  1     ecut=    50.00 Ry     beta=0.70
     Davidson diagonalization with overlap
     ethr =  1.00E-02,  avg # of iterations =  2.0

     Threshold (ethr) on eigenvalues was too large:
     Diagonalizing with lowered threshold

     Davidson diagonalization with overlap
     ethr =  7.66E-04,  avg # of iterations =  1.0

     total cpu time spent up to now is        2.0 secs

     total energy              =     -89.28560740 Ry
     Harris-Foulkes estimate   =     -89.30732257 Ry
     estimated scf accuracy    <       0.06075516 Ry

     iteration #  2     ecut=    50.00 Ry     beta=0.70
     Davidson diagonalization with overlap
     ethr =  7.59E-04,  avg # of iterations =  1.0

     total cpu time spent up to now is        2.5 secs

     total energy              =     -89.28877905 Ry
     Harris-Foulkes estimate   =     -89.28918088 Ry
     estimated scf accuracy    <       0.00196129 Ry

     iteration #  3     ecut=    50.00 Ry     beta=0.70
     Davidson diagonalization with overlap
     ethr =  2.45E-05,  avg # of iterations =  2.6

     total cpu time spent up to now is        3.2 secs

     total energy              =     -89.28926190 Ry
     Harris-Foulkes estimate   =     -89.28930791 Ry
     estimated scf accuracy    <       0.00007757 Ry

     iteration #  4     ecut=    50.00 Ry     beta=0.70
     Davidson diagonalization with overlap
     ethr =  9.70E-07,  avg # of iterations =  2.1

     total cpu time spent up to now is        3.9 secs

     total energy              =     -89.28928404 Ry
     Harris-Foulkes estimate   =     -89.28928981 Ry
     estimated scf accuracy    <       0.00001082 Ry

     iteration #  5     ecut=    50.00 Ry     beta=0.70
     Davidson diagonalization with overlap
     ethr =  1.35E-07,  avg # of iterations =  2.1

     total cpu time spent up to now is        4.6 secs

     End of self-consistent calculation

          k = 0.0000 0.0000 0.0000 (  1591 PWs)   bands (ev):

    -5.8751   6.2234   6.2234   6.2234

          k =-0.1111 0.1111-0.1111 (  1573 PWs)   bands (ev):

    -5.7109   4.8584   5.9804   5.9804

          k =-0.2222 0.2222-0.2222 (  1579 PWs)   bands (ev):

    -5.2280   2.7524   5.5499   5.5499

          k =-0.3333 0.3333-0.3333 (  1591 PWs)   bands (ev):

    -4.4723   0.8101   5.2091   5.2091

          k =-0.4444 0.4444-0.4444 (  1580 PWs)   bands (ev):

    -3.6585  -0.6157   5.0324   5.0324

          k = 0.0000 0.2222 0.0000 (  1575 PWs)   bands (ev):

    -5.6557   5.1098   5.5276   5.5276

          k =-0.1111 0.3333-0.1111 (  1577 PWs)   bands (ev):

    -5.2771   3.3948   5.0460   5.1891

          k =-0.2222 0.4444-0.2222 (  1583 PWs)   bands (ev):

    -4.6037   1.4551   4.6736   4.7385

          k =-0.3333 0.5556-0.3333 (  1581 PWs)   bands (ev):

    -3.7571  -0.1669   4.2300   4.6582

          k = 0.5556-0.3333 0.5556 (  1579 PWs)   bands (ev):

    -3.3645  -0.7558   3.9647   4.8035

          k = 0.4444-0.2222 0.4444 (  1576 PWs)   bands (ev):

    -4.0431   0.3201   3.9261   5.1414

          k = 0.3333-0.1111 0.3333 (  1579 PWs)   bands (ev):

    -4.8595   2.0821   4.1567   5.5997

          k = 0.2222-0.0000 0.2222 (  1564 PWs)   bands (ev):

    -5.4396   3.8771   4.8157   5.9996

          k = 0.0000 0.4444 0.0000 (  1587 PWs)   bands (ev):

    -5.0036   3.1925   4.5144   4.5144

          k =-0.1111 0.5556-0.1111 (  1582 PWs)   bands (ev):

    -4.4241   1.8386   3.8704   4.1676

          k =-0.2222 0.6667-0.2222 (  1592 PWs)   bands (ev):

    -3.6079   0.3357   3.1112   4.0699

          k = 0.6667-0.2222 0.6667 (  1580 PWs)   bands (ev):

    -2.9318  -0.6341   2.5793   4.2299

          k = 0.5556-0.1111 0.5556 (  1580 PWs)   bands (ev):

    -3.3571  -0.0385   2.3884   4.6199

          k = 0.4444 0.0000 0.4444 (  1572 PWs)   bands (ev):

    -4.1993   1.2366   2.7743   5.1542

          k = 0.0000 0.6667 0.0000 (  1580 PWs)   bands (ev):

    -3.9389   1.1829   3.7595   3.7595

          k =-0.1111 0.7778-0.1111 (  1595 PWs)   bands (ev):

    -3.1864   0.1190   3.0022   3.6005

          k = 0.7778-0.1111 0.7778 (  1591 PWs)   bands (ev):

    -2.3713  -0.7957   2.0635   3.7108

          k = 0.6667-0.0000 0.6667 (  1578 PWs)   bands (ev):

    -2.5446  -0.6067   1.6881   4.0738

          k = 0.0000 0.8889 0.0000 (  1596 PWs)   bands (ev):

    -2.5010  -0.7585   3.3682   3.3682

          k = 0.8889 0.0000 0.8889 (  1594 PWs)   bands (ev):

    -1.7114  -1.5443   2.7195   3.4068

          k =-0.2222 0.4444 0.0000 (  1580 PWs)   bands (ev):

    -4.7990   2.4036   3.7899   5.0366

          k =-0.3333 0.5556-0.1111 (  1584 PWs)   bands (ev):

    -4.0489   0.8863   3.1757   4.5861

          k = 0.5556-0.3333 0.7778 (  1579 PWs)   bands (ev):

    -3.2306  -0.4350   2.9856   4.2533

          k =-0.2222 0.6667 0.0000 (  1590 PWs)   bands (ev):

    -3.7602   0.8737   3.0643   3.7772

          k = 0.6667-0.2222 0.8889 (  1588 PWs)   bands (ev):

    -2.9146  -0.2292   2.3805   3.4597

          k = 0.5556-0.1111 0.7778 (  1587 PWs)   bands (ev):

    -2.5363  -0.6686   1.9818   3.5758

          k = 0.4444 0.0000 0.6667 (  1581 PWs)   bands (ev):

    -3.2562   0.1507   2.1299   4.0256

          k = 0.7778-0.1111 1.0000 (  1590 PWs)   bands (ev):

    -2.3799  -0.7713   2.7712   2.9861

          k = 0.6667-0.0000 0.8889 (  1593 PWs)   bands (ev):

    -1.8398  -1.2420   2.0155   3.0764

          k = 0.5556-0.1111 1.0000 (  1591 PWs)   bands (ev):

    -2.0918  -0.9174   2.0563   2.7169

     highest occupied level (ev):     6.2234

!    total energy              =     -89.28928651 Ry
     Harris-Foulkes estimate   =     -89.28928664 Ry
     estimated scf accuracy    <       0.00000017 Ry

     total all-electron energy =     -1156.155415 Ry

     The total energy is the sum of the following terms:

     one-electron contribution =       5.89837507 Ry
     hartree contribution      =       1.07787726 Ry
     xc contribution           =     -12.18780089 Ry
     ewald contribution        =     -16.89975861 Ry
     one-center paw contrib.   =     -67.17797935 Ry

     convergence has been achieved in   5 iterations

     Forces acting on atoms (Ry/au):

     atom    1 type  1   force =     0.00000000    0.00000000    0.00000000
     atom    2 type  1   force =    -0.00000000   -0.00000000   -0.00000000

     Total force =     0.000000     Total SCF correction =     0.000000


     entering subroutine stress ...

          total   stress  (Ry/bohr**3)                   (kbar)     P=    0.76
   0.00000519   0.00000000   0.00000000          0.76      0.00      0.00
   0.00000000   0.00000519   0.00000000          0.00      0.76      0.00
   0.00000000   0.00000000   0.00000519          0.00      0.00      0.76


     Writing output data file pwscf.save
 
     init_run     :      0.61s CPU      0.62s WALL (       1 calls)
     electrons    :      3.86s CPU      3.89s WALL (       1 calls)
     forces       :      0.05s CPU      0.05s WALL (       1 calls)
     stress       :      0.20s CPU      0.20s WALL (       1 calls)

     Called by init_run:
     wfcinit      :      0.37s CPU      0.37s WALL (       1 calls)
     potinit      :      0.02s CPU      0.02s WALL (       1 calls)

     Called by electrons:
     c_bands      :      3.05s CPU      3.07s WALL (       6 calls)
     sum_band     :      0.67s CPU      0.67s WALL (       6 calls)
     v_of_rho     :      0.02s CPU      0.02s WALL (       6 calls)
     newd         :      0.05s CPU      0.05s WALL (       6 calls)
     mix_rho      :      0.01s CPU      0.01s WALL (       6 calls)

     Called by c_bands:
     init_us_2    :      0.14s CPU      0.14s WALL (     525 calls)
     cegterg      :      2.81s CPU      2.85s WALL (     210 calls)

     Called by *egterg:
     h_psi        :      2.97s CPU      3.00s WALL (     624 calls)
     s_psi        :      0.03s CPU      0.03s WALL (     624 calls)
     g_psi        :      0.02s CPU      0.03s WALL (     379 calls)
     cdiaghg      :      0.02s CPU      0.02s WALL (     554 calls)

     Called by h_psi:
     add_vuspsi   :      0.03s CPU      0.03s WALL (     624 calls)

     General routines
     calbec       :      0.08s CPU      0.07s WALL (     904 calls)
     fft          :      0.04s CPU      0.04s WALL (      46 calls)
     fftw         :      3.12s CPU      3.11s WALL (    5836 calls)
     davcio       :      0.00s CPU      0.00s WALL (      35 calls)
 
     Parallel routines
     fft_scatter  :      0.21s CPU      0.19s WALL (    5882 calls)

     PAW routines
     PAW_pot      :      0.08s CPU      0.08s WALL (       6 calls)
     PAW_symme    :      0.00s CPU      0.00s WALL (      12 calls)
 
     PWSCF        :     4.91s CPU         5.04s WALL

 
   This run was terminated on:  15:51:37   1May2015            

=------------------------------------------------------------------------------=
   JOB DONE.
=------------------------------------------------------------------------------=
