
     Program PWSCF v.5.1 starts on  1May2015 at 15:51:42 

     This program is part of the open-source Quantum ESPRESSO suite
     for quantum simulation of materials; please cite
         "P. Giannozzi et al., J. Phys.:Condens. Matter 21 395502 (2009);
          URL http://www.quantum-espresso.org", 
     in publications or presentations arising from this work. More details at
     http://www.quantum-espresso.org/quote

     Parallel version (MPI), running on     1 processors
     Waiting for input...
     Reading input from standard input
Warning: card &IONS ignored
Warning: card / ignored
Warning: card &CELL ignored
Warning: card / ignored

     Current dimensions of program PWSCF are:
     Max number of different atomic species (ntypx) = 10
     Max number of k-points (npk) =  40000
     Max angular momentum in pseudopotentials (lmaxx) =  3
               file Si.pz-n-kjpaw_psl.0.1.UPF: wavefunction(s)  3S renormalized

     Subspace diagonalization in iterative solution of the eigenvalue problem:
     a serial algorithm will be used

 
     G-vector sticks info
     --------------------
     sticks:   dense  smooth     PW     G-vecs:    dense   smooth      PW
     Sum         721     721    223                12675    12675    2133
 


     bravais-lattice index     =            2
     lattice parameter (alat)  =      10.2200  a.u.
     unit-cell volume          =     266.8657 (a.u.)^3
     number of atoms/cell      =            2
     number of atomic types    =            1
     number of electrons       =         8.00
     number of Kohn-Sham states=            4
     kinetic-energy cutoff     =      50.0000  Ry
     charge density cutoff     =     200.0000  Ry
     convergence threshold     =      1.0E-06
     mixing beta               =       0.7000
     number of iterations used =            8  plain     mixing
     Exchange-correlation      =  SLA  PZ   NOGX NOGC ( 1  1  0  0 0)

     celldm(1)=  10.220000  celldm(2)=   0.000000  celldm(3)=   0.000000
     celldm(4)=   0.000000  celldm(5)=   0.000000  celldm(6)=   0.000000

     crystal axes: (cart. coord. in units of alat)
               a(1) = (  -0.500000   0.000000   0.500000 )  
               a(2) = (   0.000000   0.500000   0.500000 )  
               a(3) = (  -0.500000   0.500000   0.000000 )  

     reciprocal axes: (cart. coord. in units 2 pi/alat)
               b(1) = ( -1.000000 -1.000000  1.000000 )  
               b(2) = (  1.000000  1.000000  1.000000 )  
               b(3) = ( -1.000000  1.000000 -1.000000 )  


     PseudoPot. # 1 for Si read from file:
     ./Si.pz-n-kjpaw_psl.0.1.UPF
     MD5 check sum: 39d85f6d7c0899aba58824f54593099f
     Pseudo is Projector augmented-wave + core cor, Zval =  4.0
     Generated using "atomic" code by A. Dal Corso  v.5.0.2 svn rev. 9415
     Shape of augmentation charge: PSQ
     Using radial grid of 1141 points,  4 beta functions with: 
                l(1) =   0
                l(2) =   0
                l(3) =   1
                l(4) =   1
     Q(r) pseudized with 0 coefficients 


     atomic species   valence    mass     pseudopotential
        Si             4.00    28.05500     Si( 1.00)

     48 Sym. Ops., with inversion, found (24 have fractional translation)



   Cartesian axes

     site n.     atom                  positions (alat units)
         1           Si  tau(   1) = (   0.0000000   0.0000000   0.0000000  )
         2           Si  tau(   2) = (  -0.2500000   0.2500000   0.2500000  )

     number of k points=    35
                       cart. coord. in units 2pi/alat
        k(    1) = (   0.0000000   0.0000000   0.0000000), wk =   0.0027435
        k(    2) = (  -0.1111111   0.1111111  -0.1111111), wk =   0.0219479
        k(    3) = (  -0.2222222   0.2222222  -0.2222222), wk =   0.0219479
        k(    4) = (  -0.3333333   0.3333333  -0.3333333), wk =   0.0219479
        k(    5) = (  -0.4444444   0.4444444  -0.4444444), wk =   0.0219479
        k(    6) = (   0.0000000   0.2222222   0.0000000), wk =   0.0164609
        k(    7) = (  -0.1111111   0.3333333  -0.1111111), wk =   0.0658436
        k(    8) = (  -0.2222222   0.4444444  -0.2222222), wk =   0.0658436
        k(    9) = (  -0.3333333   0.5555556  -0.3333333), wk =   0.0658436
        k(   10) = (   0.5555556  -0.3333333   0.5555556), wk =   0.0658436
        k(   11) = (   0.4444444  -0.2222222   0.4444444), wk =   0.0658436
        k(   12) = (   0.3333333  -0.1111111   0.3333333), wk =   0.0658436
        k(   13) = (   0.2222222  -0.0000000   0.2222222), wk =   0.0329218
        k(   14) = (   0.0000000   0.4444444   0.0000000), wk =   0.0164609
        k(   15) = (  -0.1111111   0.5555556  -0.1111111), wk =   0.0658436
        k(   16) = (  -0.2222222   0.6666667  -0.2222222), wk =   0.0658436
        k(   17) = (   0.6666667  -0.2222222   0.6666667), wk =   0.0658436
        k(   18) = (   0.5555556  -0.1111111   0.5555556), wk =   0.0658436
        k(   19) = (   0.4444444   0.0000000   0.4444444), wk =   0.0329218
        k(   20) = (   0.0000000   0.6666667   0.0000000), wk =   0.0164609
        k(   21) = (  -0.1111111   0.7777778  -0.1111111), wk =   0.0658436
        k(   22) = (   0.7777778  -0.1111111   0.7777778), wk =   0.0658436
        k(   23) = (   0.6666667  -0.0000000   0.6666667), wk =   0.0329218
        k(   24) = (   0.0000000   0.8888889   0.0000000), wk =   0.0164609
        k(   25) = (   0.8888889   0.0000000   0.8888889), wk =   0.0329218
        k(   26) = (  -0.2222222   0.4444444   0.0000000), wk =   0.0658436
        k(   27) = (  -0.3333333   0.5555556  -0.1111111), wk =   0.1316872
        k(   28) = (   0.5555556  -0.3333333   0.7777778), wk =   0.1316872
        k(   29) = (  -0.2222222   0.6666667   0.0000000), wk =   0.0658436
        k(   30) = (   0.6666667  -0.2222222   0.8888889), wk =   0.1316872
        k(   31) = (   0.5555556  -0.1111111   0.7777778), wk =   0.1316872
        k(   32) = (   0.4444444   0.0000000   0.6666667), wk =   0.0658436
        k(   33) = (   0.7777778  -0.1111111   1.0000000), wk =   0.0658436
        k(   34) = (   0.6666667  -0.0000000   0.8888889), wk =   0.0658436
        k(   35) = (   0.5555556  -0.1111111   1.0000000), wk =   0.0658436

     Dense  grid:    12675 G-vectors     FFT dimensions: (  36,  36,  36)

     Largest allocated arrays     est. size (Mb)     dimensions
        Kohn-Sham Wavefunctions         0.10 Mb     (    1639,    4)
        NL pseudopotentials             0.40 Mb     (    1639,   16)
        Each V/rho on FFT grid          0.71 Mb     (   46656)
        Each G-vector array             0.10 Mb     (   12675)
        G-vector shells                 0.00 Mb     (     178)
     Largest temporary arrays     est. size (Mb)     dimensions
        Auxiliary wavefunctions         0.40 Mb     (    1639,   16)
        Each subspace H/S matrix        0.00 Mb     (      16,   16)
        Each <psi_i|beta_j> matrix      0.00 Mb     (      16,    4)
        Arrays for rho mixing           5.70 Mb     (   46656,    8)

     Initial potential from superposition of free atoms

     starting charge    7.99900, renormalised to    8.00000
     Starting wfc are    8 randomized atomic wfcs
     Checking if some PAW data can be deallocated... 

     total cpu time spent up to now is        0.8 secs

     per-process dynamical memory:    14.1 Mb

     Self-consistent Calculation

     iteration #  1     ecut=    50.00 Ry     beta=0.70
     Davidson diagonalization with overlap
     ethr =  1.00E-02,  avg # of iterations =  2.0

     Threshold (ethr) on eigenvalues was too large:
     Diagonalizing with lowered threshold

     Davidson diagonalization with overlap
     ethr =  7.59E-04,  avg # of iterations =  1.0

     total cpu time spent up to now is        2.0 secs

     total energy              =     -89.28565784 Ry
     Harris-Foulkes estimate   =     -89.30705337 Ry
     estimated scf accuracy    <       0.06017600 Ry

     iteration #  2     ecut=    50.00 Ry     beta=0.70
     Davidson diagonalization with overlap
     ethr =  7.52E-04,  avg # of iterations =  1.0

     total cpu time spent up to now is        2.6 secs

     total energy              =     -89.28876865 Ry
     Harris-Foulkes estimate   =     -89.28916765 Ry
     estimated scf accuracy    <       0.00196120 Ry

     iteration #  3     ecut=    50.00 Ry     beta=0.70
     Davidson diagonalization with overlap
     ethr =  2.45E-05,  avg # of iterations =  2.6

     total cpu time spent up to now is        3.3 secs

     total energy              =     -89.28924693 Ry
     Harris-Foulkes estimate   =     -89.28929225 Ry
     estimated scf accuracy    <       0.00007630 Ry

     iteration #  4     ecut=    50.00 Ry     beta=0.70
     Davidson diagonalization with overlap
     ethr =  9.54E-07,  avg # of iterations =  2.1

     total cpu time spent up to now is        4.0 secs

     total energy              =     -89.28926850 Ry
     Harris-Foulkes estimate   =     -89.28927422 Ry
     estimated scf accuracy    <       0.00001072 Ry

     iteration #  5     ecut=    50.00 Ry     beta=0.70
     Davidson diagonalization with overlap
     ethr =  1.34E-07,  avg # of iterations =  2.1

     total cpu time spent up to now is        4.8 secs

     End of self-consistent calculation

          k = 0.0000 0.0000 0.0000 (  1639 PWs)   bands (ev):

    -5.8966   6.1612   6.1612   6.1612

          k =-0.1111 0.1111-0.1111 (  1573 PWs)   bands (ev):

    -5.7332   4.7975   5.9196   5.9196

          k =-0.2222 0.2222-0.2222 (  1585 PWs)   bands (ev):

    -5.2527   2.6990   5.4912   5.4912

          k =-0.3333 0.3333-0.3333 (  1609 PWs)   bands (ev):

    -4.5013   0.7656   5.1515   5.1515

          k =-0.4444 0.4444-0.4444 (  1580 PWs)   bands (ev):

    -3.6934  -0.6518   4.9753   4.9753

          k = 0.0000 0.2222 0.0000 (  1575 PWs)   bands (ev):

    -5.6783   5.0422   5.4701   5.4701

          k =-0.1111 0.3333-0.1111 (  1589 PWs)   bands (ev):

    -5.3016   3.3361   4.9909   5.1300

          k =-0.2222 0.4444-0.2222 (  1593 PWs)   bands (ev):

    -4.6319   1.4059   4.6163   4.6844

          k =-0.3333 0.5556-0.3333 (  1597 PWs)   bands (ev):

    -3.7907  -0.2071   4.1747   4.6040

          k = 0.5556-0.3333 0.5556 (  1589 PWs)   bands (ev):

    -3.4015  -0.7917   3.9112   4.7480

          k = 0.4444-0.2222 0.4444 (  1590 PWs)   bands (ev):

    -4.0747   0.2770   3.8738   5.0840

          k = 0.3333-0.1111 0.3333 (  1583 PWs)   bands (ev):

    -4.8863   2.0297   4.1050   5.5398

          k = 0.2222-0.0000 0.2222 (  1584 PWs)   bands (ev):

    -5.4633   3.8162   4.7626   5.9378

          k = 0.0000 0.4444 0.0000 (  1603 PWs)   bands (ev):

    -5.0295   3.1276   4.4622   4.4622

          k =-0.1111 0.5556-0.1111 (  1596 PWs)   bands (ev):

    -4.4529   1.7810   3.8205   4.1169

          k =-0.2222 0.6667-0.2222 (  1608 PWs)   bands (ev):

    -3.6416   0.2875   3.0643   4.0194

          k = 0.6667-0.2222 0.6667 (  1586 PWs)   bands (ev):

    -2.9708  -0.6749   2.5351   4.1783

          k = 0.5556-0.1111 0.5556 (  1592 PWs)   bands (ev):

    -3.3928  -0.0838   2.3465   4.5659

          k = 0.4444 0.0000 0.4444 (  1580 PWs)   bands (ev):

    -4.2296   1.1834   2.7323   5.0969

          k = 0.0000 0.6667 0.0000 (  1580 PWs)   bands (ev):

    -3.9702   1.1258   3.7109   3.7109

          k =-0.1111 0.7778-0.1111 (  1605 PWs)   bands (ev):

    -3.2217   0.0668   2.9589   3.5525

          k = 0.7778-0.1111 0.7778 (  1599 PWs)   bands (ev):

    -2.4123  -0.8425   2.0268   3.6620

          k = 0.6667-0.0000 0.6667 (  1596 PWs)   bands (ev):

    -2.5854  -0.6535   1.6539   4.0230

          k = 0.0000 0.8889 0.0000 (  1604 PWs)   bands (ev):

    -2.5397  -0.8062   3.3213   3.3213

          k = 0.8889 0.0000 0.8889 (  1604 PWs)   bands (ev):

    -1.7550  -1.5877   2.6781   3.3596

          k =-0.2222 0.4444 0.0000 (  1589 PWs)   bands (ev):

    -4.8260   2.3454   3.7423   4.9796

          k =-0.3333 0.5556-0.1111 (  1598 PWs)   bands (ev):

    -4.0801   0.8365   3.1289   4.5326

          k = 0.5556-0.3333 0.7778 (  1592 PWs)   bands (ev):

    -3.2675  -0.4759   2.9378   4.2024

          k =-0.2222 0.6667 0.0000 (  1600 PWs)   bands (ev):

    -3.7927   0.8186   3.0204   3.7294

          k = 0.6667-0.2222 0.8889 (  1597 PWs)   bands (ev):

    -2.9523  -0.2781   2.3402   3.4143

          k = 0.5556-0.1111 0.7778 (  1589 PWs)   bands (ev):

    -2.5772  -0.7138   1.9441   3.5294

          k = 0.4444 0.0000 0.6667 (  1596 PWs)   bands (ev):

    -3.2920   0.1003   2.0920   3.9762

          k = 0.7778-0.1111 1.0000 (  1596 PWs)   bands (ev):

    -2.4197  -0.8196   2.7292   2.9434

          k = 0.6667-0.0000 0.8889 (  1601 PWs)   bands (ev):

    -1.8841  -1.2873   1.9798   3.0330

          k = 0.5556-0.1111 1.0000 (  1603 PWs)   bands (ev):

    -2.1345  -0.9654   2.0200   2.6769

     highest occupied level (ev):     6.1612

!    total energy              =     -89.28927096 Ry
     Harris-Foulkes estimate   =     -89.28927110 Ry
     estimated scf accuracy    <       0.00000018 Ry

     total all-electron energy =     -1156.155399 Ry

     The total energy is the sum of the following terms:

     one-electron contribution =       5.85165416 Ry
     hartree contribution      =       1.08294362 Ry
     xc contribution           =     -12.18039724 Ry
     ewald contribution        =     -16.86668667 Ry
     one-center paw contrib.   =     -67.17678483 Ry

     convergence has been achieved in   5 iterations

     Forces acting on atoms (Ry/au):

     atom    1 type  1   force =     0.00000000    0.00000000    0.00000000
     atom    2 type  1   force =    -0.00000000   -0.00000000    0.00000000

     Total force =     0.000000     Total SCF correction =     0.000000


     entering subroutine stress ...

          total   stress  (Ry/bohr**3)                   (kbar)     P=   -4.89
  -0.00003323  -0.00000000   0.00000000         -4.89     -0.00      0.00
  -0.00000000  -0.00003323   0.00000000         -0.00     -4.89      0.00
   0.00000000  -0.00000000  -0.00003323          0.00     -0.00     -4.89


     Writing output data file pwscf.save
 
     init_run     :      0.63s CPU      0.64s WALL (       1 calls)
     electrons    :      4.00s CPU      4.02s WALL (       1 calls)
     forces       :      0.05s CPU      0.05s WALL (       1 calls)
     stress       :      0.20s CPU      0.21s WALL (       1 calls)

     Called by init_run:
     wfcinit      :      0.39s CPU      0.39s WALL (       1 calls)
     potinit      :      0.02s CPU      0.02s WALL (       1 calls)

     Called by electrons:
     c_bands      :      3.17s CPU      3.19s WALL (       6 calls)
     sum_band     :      0.69s CPU      0.69s WALL (       6 calls)
     v_of_rho     :      0.02s CPU      0.02s WALL (       6 calls)
     newd         :      0.05s CPU      0.05s WALL (       6 calls)
     mix_rho      :      0.01s CPU      0.01s WALL (       6 calls)

     Called by c_bands:
     init_us_2    :      0.14s CPU      0.14s WALL (     525 calls)
     cegterg      :      2.93s CPU      2.95s WALL (     210 calls)

     Called by *egterg:
     h_psi        :      3.10s CPU      3.12s WALL (     622 calls)
     s_psi        :      0.03s CPU      0.03s WALL (     622 calls)
     g_psi        :      0.03s CPU      0.03s WALL (     377 calls)
     cdiaghg      :      0.02s CPU      0.02s WALL (     552 calls)

     Called by h_psi:
     add_vuspsi   :      0.04s CPU      0.03s WALL (     622 calls)

     General routines
     calbec       :      0.07s CPU      0.07s WALL (     902 calls)
     fft          :      0.04s CPU      0.04s WALL (      46 calls)
     fftw         :      3.22s CPU      3.24s WALL (    5834 calls)
     davcio       :      0.00s CPU      0.00s WALL (      35 calls)
 
     Parallel routines
     fft_scatter  :      0.21s CPU      0.20s WALL (    5880 calls)

     PAW routines
     PAW_pot      :      0.08s CPU      0.08s WALL (       6 calls)
     PAW_symme    :      0.00s CPU      0.00s WALL (      12 calls)
 
     PWSCF        :     5.07s CPU         5.44s WALL

 
   This run was terminated on:  15:51:48   1May2015            

=------------------------------------------------------------------------------=
   JOB DONE.
=------------------------------------------------------------------------------=
