
     Program PWSCF v.5.1 starts on  1May2015 at 15:51:11 

     This program is part of the open-source Quantum ESPRESSO suite
     for quantum simulation of materials; please cite
         "P. Giannozzi et al., J. Phys.:Condens. Matter 21 395502 (2009);
          URL http://www.quantum-espresso.org", 
     in publications or presentations arising from this work. More details at
     http://www.quantum-espresso.org/quote

     Parallel version (MPI), running on     1 processors
     Waiting for input...
     Reading input from standard input
Warning: card &IONS ignored
Warning: card / ignored
Warning: card &CELL ignored
Warning: card / ignored

     Current dimensions of program PWSCF are:
     Max number of different atomic species (ntypx) = 10
     Max number of k-points (npk) =  40000
     Max angular momentum in pseudopotentials (lmaxx) =  3
               file Si.pz-n-kjpaw_psl.0.1.UPF: wavefunction(s)  3S renormalized

     Subspace diagonalization in iterative solution of the eigenvalue problem:
     a serial algorithm will be used

 
     G-vector sticks info
     --------------------
     sticks:   dense  smooth     PW     G-vecs:    dense   smooth      PW
     Sum         703     703    211                12387    12387    2109
 


     bravais-lattice index     =            2
     lattice parameter (alat)  =      10.1600  a.u.
     unit-cell volume          =     262.1930 (a.u.)^3
     number of atoms/cell      =            2
     number of atomic types    =            1
     number of electrons       =         8.00
     number of Kohn-Sham states=            4
     kinetic-energy cutoff     =      50.0000  Ry
     charge density cutoff     =     200.0000  Ry
     convergence threshold     =      1.0E-06
     mixing beta               =       0.7000
     number of iterations used =            8  plain     mixing
     Exchange-correlation      =  SLA  PZ   NOGX NOGC ( 1  1  0  0 0)

     celldm(1)=  10.160000  celldm(2)=   0.000000  celldm(3)=   0.000000
     celldm(4)=   0.000000  celldm(5)=   0.000000  celldm(6)=   0.000000

     crystal axes: (cart. coord. in units of alat)
               a(1) = (  -0.500000   0.000000   0.500000 )  
               a(2) = (   0.000000   0.500000   0.500000 )  
               a(3) = (  -0.500000   0.500000   0.000000 )  

     reciprocal axes: (cart. coord. in units 2 pi/alat)
               b(1) = ( -1.000000 -1.000000  1.000000 )  
               b(2) = (  1.000000  1.000000  1.000000 )  
               b(3) = ( -1.000000  1.000000 -1.000000 )  


     PseudoPot. # 1 for Si read from file:
     ./Si.pz-n-kjpaw_psl.0.1.UPF
     MD5 check sum: 39d85f6d7c0899aba58824f54593099f
     Pseudo is Projector augmented-wave + core cor, Zval =  4.0
     Generated using "atomic" code by A. Dal Corso  v.5.0.2 svn rev. 9415
     Shape of augmentation charge: PSQ
     Using radial grid of 1141 points,  4 beta functions with: 
                l(1) =   0
                l(2) =   0
                l(3) =   1
                l(4) =   1
     Q(r) pseudized with 0 coefficients 


     atomic species   valence    mass     pseudopotential
        Si             4.00    28.05500     Si( 1.00)

     48 Sym. Ops., with inversion, found (24 have fractional translation)



   Cartesian axes

     site n.     atom                  positions (alat units)
         1           Si  tau(   1) = (   0.0000000   0.0000000   0.0000000  )
         2           Si  tau(   2) = (  -0.2500000   0.2500000   0.2500000  )

     number of k points=    35
                       cart. coord. in units 2pi/alat
        k(    1) = (   0.0000000   0.0000000   0.0000000), wk =   0.0027435
        k(    2) = (  -0.1111111   0.1111111  -0.1111111), wk =   0.0219479
        k(    3) = (  -0.2222222   0.2222222  -0.2222222), wk =   0.0219479
        k(    4) = (  -0.3333333   0.3333333  -0.3333333), wk =   0.0219479
        k(    5) = (  -0.4444444   0.4444444  -0.4444444), wk =   0.0219479
        k(    6) = (   0.0000000   0.2222222   0.0000000), wk =   0.0164609
        k(    7) = (  -0.1111111   0.3333333  -0.1111111), wk =   0.0658436
        k(    8) = (  -0.2222222   0.4444444  -0.2222222), wk =   0.0658436
        k(    9) = (  -0.3333333   0.5555556  -0.3333333), wk =   0.0658436
        k(   10) = (   0.5555556  -0.3333333   0.5555556), wk =   0.0658436
        k(   11) = (   0.4444444  -0.2222222   0.4444444), wk =   0.0658436
        k(   12) = (   0.3333333  -0.1111111   0.3333333), wk =   0.0658436
        k(   13) = (   0.2222222  -0.0000000   0.2222222), wk =   0.0329218
        k(   14) = (   0.0000000   0.4444444   0.0000000), wk =   0.0164609
        k(   15) = (  -0.1111111   0.5555556  -0.1111111), wk =   0.0658436
        k(   16) = (  -0.2222222   0.6666667  -0.2222222), wk =   0.0658436
        k(   17) = (   0.6666667  -0.2222222   0.6666667), wk =   0.0658436
        k(   18) = (   0.5555556  -0.1111111   0.5555556), wk =   0.0658436
        k(   19) = (   0.4444444   0.0000000   0.4444444), wk =   0.0329218
        k(   20) = (   0.0000000   0.6666667   0.0000000), wk =   0.0164609
        k(   21) = (  -0.1111111   0.7777778  -0.1111111), wk =   0.0658436
        k(   22) = (   0.7777778  -0.1111111   0.7777778), wk =   0.0658436
        k(   23) = (   0.6666667  -0.0000000   0.6666667), wk =   0.0329218
        k(   24) = (   0.0000000   0.8888889   0.0000000), wk =   0.0164609
        k(   25) = (   0.8888889   0.0000000   0.8888889), wk =   0.0329218
        k(   26) = (  -0.2222222   0.4444444   0.0000000), wk =   0.0658436
        k(   27) = (  -0.3333333   0.5555556  -0.1111111), wk =   0.1316872
        k(   28) = (   0.5555556  -0.3333333   0.7777778), wk =   0.1316872
        k(   29) = (  -0.2222222   0.6666667   0.0000000), wk =   0.0658436
        k(   30) = (   0.6666667  -0.2222222   0.8888889), wk =   0.1316872
        k(   31) = (   0.5555556  -0.1111111   0.7777778), wk =   0.1316872
        k(   32) = (   0.4444444   0.0000000   0.6666667), wk =   0.0658436
        k(   33) = (   0.7777778  -0.1111111   1.0000000), wk =   0.0658436
        k(   34) = (   0.6666667  -0.0000000   0.8888889), wk =   0.0658436
        k(   35) = (   0.5555556  -0.1111111   1.0000000), wk =   0.0658436

     Dense  grid:    12387 G-vectors     FFT dimensions: (  36,  36,  36)

     Largest allocated arrays     est. size (Mb)     dimensions
        Kohn-Sham Wavefunctions         0.10 Mb     (    1584,    4)
        NL pseudopotentials             0.39 Mb     (    1584,   16)
        Each V/rho on FFT grid          0.71 Mb     (   46656)
        Each G-vector array             0.09 Mb     (   12387)
        G-vector shells                 0.00 Mb     (     175)
     Largest temporary arrays     est. size (Mb)     dimensions
        Auxiliary wavefunctions         0.39 Mb     (    1584,   16)
        Each subspace H/S matrix        0.00 Mb     (      16,   16)
        Each <psi_i|beta_j> matrix      0.00 Mb     (      16,    4)
        Arrays for rho mixing           5.70 Mb     (   46656,    8)

     Initial potential from superposition of free atoms

     starting charge    7.99900, renormalised to    8.00000
     Starting wfc are    8 randomized atomic wfcs
     Checking if some PAW data can be deallocated... 

     total cpu time spent up to now is        0.8 secs

     per-process dynamical memory:    13.9 Mb

     Self-consistent Calculation

     iteration #  1     ecut=    50.00 Ry     beta=0.70
     Davidson diagonalization with overlap
     ethr =  1.00E-02,  avg # of iterations =  2.0

     Threshold (ethr) on eigenvalues was too large:
     Diagonalizing with lowered threshold

     Davidson diagonalization with overlap
     ethr =  7.82E-04,  avg # of iterations =  1.0

     total cpu time spent up to now is        2.0 secs

     total energy              =     -89.28527429 Ry
     Harris-Foulkes estimate   =     -89.30767355 Ry
     estimated scf accuracy    <       0.06199672 Ry

     iteration #  2     ecut=    50.00 Ry     beta=0.70
     Davidson diagonalization with overlap
     ethr =  7.75E-04,  avg # of iterations =  1.0

     total cpu time spent up to now is        2.5 secs

     total energy              =     -89.28860926 Ry
     Harris-Foulkes estimate   =     -89.28900640 Ry
     estimated scf accuracy    <       0.00195804 Ry

     iteration #  3     ecut=    50.00 Ry     beta=0.70
     Davidson diagonalization with overlap
     ethr =  2.45E-05,  avg # of iterations =  2.7

     total cpu time spent up to now is        3.2 secs

     total energy              =     -89.28911678 Ry
     Harris-Foulkes estimate   =     -89.28916422 Ry
     estimated scf accuracy    <       0.00008004 Ry

     iteration #  4     ecut=    50.00 Ry     beta=0.70
     Davidson diagonalization with overlap
     ethr =  1.00E-06,  avg # of iterations =  2.1

     total cpu time spent up to now is        3.9 secs

     total energy              =     -89.28913954 Ry
     Harris-Foulkes estimate   =     -89.28914561 Ry
     estimated scf accuracy    <       0.00001140 Ry

     iteration #  5     ecut=    50.00 Ry     beta=0.70
     Davidson diagonalization with overlap
     ethr =  1.42E-07,  avg # of iterations =  2.1

     total cpu time spent up to now is        4.6 secs

     End of self-consistent calculation

          k = 0.0000 0.0000 0.0000 (  1471 PWs)   bands (ev):

    -5.8317   6.3492   6.3492   6.3492

          k =-0.1111 0.1111-0.1111 (  1534 PWs)   bands (ev):

    -5.6658   4.9813   6.1032   6.1032

          k =-0.2222 0.2222-0.2222 (  1555 PWs)   bands (ev):

    -5.1778   2.8600   5.6689   5.6689

          k =-0.3333 0.3333-0.3333 (  1561 PWs)   bands (ev):

    -4.4135   0.8999   5.3256   5.3256

          k =-0.4444 0.4444-0.4444 (  1559 PWs)   bands (ev):

    -3.5878  -0.5428   5.1480   5.1480

          k = 0.0000 0.2222 0.0000 (  1547 PWs)   bands (ev):

    -5.6101   5.2462   5.6440   5.6440

          k =-0.1111 0.3333-0.1111 (  1545 PWs)   bands (ev):

    -5.2276   3.5132   5.1575   5.3088

          k =-0.2222 0.4444-0.2222 (  1573 PWs)   bands (ev):

    -4.5468   1.5544   4.7898   4.8478

          k =-0.3333 0.5556-0.3333 (  1563 PWs)   bands (ev):

    -3.6891  -0.0858   4.3420   4.7679

          k = 0.5556-0.3333 0.5556 (  1559 PWs)   bands (ev):

    -3.2896  -0.6835   4.0730   4.9156

          k = 0.4444-0.2222 0.4444 (  1568 PWs)   bands (ev):

    -3.9792   0.4071   4.0319   5.2577

          k = 0.3333-0.1111 0.3333 (  1566 PWs)   bands (ev):

    -4.8055   2.1880   4.2615   5.7209

          k = 0.2222-0.0000 0.2222 (  1550 PWs)   bands (ev):

    -5.3917   3.9999   4.9231   6.1248

          k = 0.0000 0.4444 0.0000 (  1559 PWs)   bands (ev):

    -4.9514   3.3237   4.6201   4.6201

          k =-0.1111 0.5556-0.1111 (  1568 PWs)   bands (ev):

    -4.3657   1.9548   3.9715   4.2701

          k =-0.2222 0.6667-0.2222 (  1565 PWs)   bands (ev):

    -3.5398   0.4329   3.2063   4.1722

          k = 0.6667-0.2222 0.6667 (  1569 PWs)   bands (ev):

    -2.8528  -0.5519   2.6689   4.3345

          k = 0.5556-0.1111 0.5556 (  1568 PWs)   bands (ev):

    -3.2849   0.0530   2.4733   4.7293

          k = 0.4444 0.0000 0.4444 (  1560 PWs)   bands (ev):

    -4.1379   1.3439   2.8592   5.2700

          k = 0.0000 0.6667 0.0000 (  1580 PWs)   bands (ev):

    -3.8757   1.2984   3.8580   3.8580

          k =-0.1111 0.7778-0.1111 (  1577 PWs)   bands (ev):

    -3.1150   0.2243   3.0896   3.6977

          k = 0.7778-0.1111 0.7778 (  1573 PWs)   bands (ev):

    -2.2885  -0.7012   2.1377   3.8094

          k = 0.6667-0.0000 0.6667 (  1568 PWs)   bands (ev):

    -2.4622  -0.5121   1.7573   4.1766

          k = 0.0000 0.8889 0.0000 (  1584 PWs)   bands (ev):

    -2.4229  -0.6621   3.4631   3.4631

          k = 0.8889 0.0000 0.8889 (  1572 PWs)   bands (ev):

    -1.6233  -1.4564   2.8033   3.5022

          k =-0.2222 0.4444 0.0000 (  1556 PWs)   bands (ev):

    -4.7445   2.5211   3.8864   5.1518

          k =-0.3333 0.5556-0.1111 (  1564 PWs)   bands (ev):

    -3.9858   0.9867   3.2704   4.6946

          k = 0.5556-0.3333 0.7778 (  1556 PWs)   bands (ev):

    -3.1559  -0.3526   3.0824   4.3565

          k =-0.2222 0.6667 0.0000 (  1572 PWs)   bands (ev):

    -3.6946   0.9849   3.1531   3.8740

          k = 0.6667-0.2222 0.8889 (  1574 PWs)   bands (ev):

    -2.8385  -0.1304   2.4620   3.5516

          k = 0.5556-0.1111 0.7778 (  1560 PWs)   bands (ev):

    -2.4535  -0.5773   2.0583   3.6696

          k = 0.4444 0.0000 0.6667 (  1565 PWs)   bands (ev):

    -3.1836   0.2525   2.2065   4.1256

          k = 0.7778-0.1111 1.0000 (  1578 PWs)   bands (ev):

    -2.2994  -0.6737   2.8561   3.0725

          k = 0.6667-0.0000 0.8889 (  1573 PWs)   bands (ev):

    -1.7501  -1.1503   2.0877   3.1643

          k = 0.5556-0.1111 1.0000 (  1572 PWs)   bands (ev):

    -2.0056  -0.8205   2.1298   2.7977

     highest occupied level (ev):     6.3492

!    total energy              =     -89.28914214 Ry
     Harris-Foulkes estimate   =     -89.28914227 Ry
     estimated scf accuracy    <       0.00000018 Ry

     total all-electron energy =     -1156.155270 Ry

     The total energy is the sum of the following terms:

     one-electron contribution =       5.99257470 Ry
     hartree contribution      =       1.06773709 Ry
     xc contribution           =     -12.20274586 Ry
     ewald contribution        =     -16.96629309 Ry
     one-center paw contrib.   =     -67.18041498 Ry

     convergence has been achieved in   5 iterations

     Forces acting on atoms (Ry/au):

     atom    1 type  1   force =     0.00000000    0.00000000    0.00000000
     atom    2 type  1   force =    -0.00000000   -0.00000000   -0.00000000

     Total force =     0.000000     Total SCF correction =     0.000000


     entering subroutine stress ...

          total   stress  (Ry/bohr**3)                   (kbar)     P=   12.53
   0.00008515   0.00000000  -0.00000000         12.53      0.00     -0.00
   0.00000000   0.00008515  -0.00000000          0.00     12.53     -0.00
   0.00000000   0.00000000   0.00008515          0.00      0.00     12.53


     Writing output data file pwscf.save
 
     init_run     :      0.61s CPU      0.62s WALL (       1 calls)
     electrons    :      3.83s CPU      3.87s WALL (       1 calls)
     forces       :      0.05s CPU      0.05s WALL (       1 calls)
     stress       :      0.20s CPU      0.20s WALL (       1 calls)

     Called by init_run:
     wfcinit      :      0.37s CPU      0.38s WALL (       1 calls)
     potinit      :      0.02s CPU      0.02s WALL (       1 calls)

     Called by electrons:
     c_bands      :      3.02s CPU      3.05s WALL (       6 calls)
     sum_band     :      0.67s CPU      0.67s WALL (       6 calls)
     v_of_rho     :      0.02s CPU      0.02s WALL (       6 calls)
     newd         :      0.05s CPU      0.05s WALL (       6 calls)
     mix_rho      :      0.01s CPU      0.01s WALL (       6 calls)

     Called by c_bands:
     init_us_2    :      0.14s CPU      0.14s WALL (     525 calls)
     cegterg      :      2.79s CPU      2.83s WALL (     210 calls)

     Called by *egterg:
     h_psi        :      2.96s CPU      2.98s WALL (     623 calls)
     s_psi        :      0.04s CPU      0.03s WALL (     623 calls)
     g_psi        :      0.02s CPU      0.03s WALL (     378 calls)
     cdiaghg      :      0.02s CPU      0.02s WALL (     553 calls)

     Called by h_psi:
     add_vuspsi   :      0.03s CPU      0.03s WALL (     623 calls)

     General routines
     calbec       :      0.05s CPU      0.07s WALL (     903 calls)
     fft          :      0.03s CPU      0.04s WALL (      46 calls)
     fftw         :      3.10s CPU      3.09s WALL (    5834 calls)
     davcio       :      0.00s CPU      0.00s WALL (      35 calls)
 
     Parallel routines
     fft_scatter  :      0.20s CPU      0.20s WALL (    5880 calls)

     PAW routines
     PAW_pot      :      0.08s CPU      0.08s WALL (       6 calls)
     PAW_symme    :      0.00s CPU      0.00s WALL (      12 calls)
 
     PWSCF        :     4.89s CPU         5.02s WALL

 
   This run was terminated on:  15:51:16   1May2015            

=------------------------------------------------------------------------------=
   JOB DONE.
=------------------------------------------------------------------------------=
