
     Program PWSCF v.5.1 starts on  1May2015 at 15:52:46 

     This program is part of the open-source Quantum ESPRESSO suite
     for quantum simulation of materials; please cite
         "P. Giannozzi et al., J. Phys.:Condens. Matter 21 395502 (2009);
          URL http://www.quantum-espresso.org", 
     in publications or presentations arising from this work. More details at
     http://www.quantum-espresso.org/quote

     Parallel version (MPI), running on     1 processors
     Waiting for input...
     Reading input from standard input
Warning: card &IONS ignored
Warning: card / ignored
Warning: card &CELL ignored
Warning: card / ignored

     Current dimensions of program PWSCF are:
     Max number of different atomic species (ntypx) = 10
     Max number of k-points (npk) =  40000
     Max angular momentum in pseudopotentials (lmaxx) =  3
               file Si.pz-n-kjpaw_psl.0.1.UPF: wavefunction(s)  3S renormalized

     Subspace diagonalization in iterative solution of the eigenvalue problem:
     a serial algorithm will be used

 
     G-vector sticks info
     --------------------
     sticks:   dense  smooth     PW     G-vecs:    dense   smooth      PW
     Sum         757     757    235                13803    13803    2277
 


     bravais-lattice index     =            2
     lattice parameter (alat)  =      10.4800  a.u.
     unit-cell volume          =     287.7556 (a.u.)^3
     number of atoms/cell      =            2
     number of atomic types    =            1
     number of electrons       =         8.00
     number of Kohn-Sham states=            4
     kinetic-energy cutoff     =      50.0000  Ry
     charge density cutoff     =     200.0000  Ry
     convergence threshold     =      1.0E-06
     mixing beta               =       0.7000
     number of iterations used =            8  plain     mixing
     Exchange-correlation      =  SLA  PZ   NOGX NOGC ( 1  1  0  0 0)

     celldm(1)=  10.480000  celldm(2)=   0.000000  celldm(3)=   0.000000
     celldm(4)=   0.000000  celldm(5)=   0.000000  celldm(6)=   0.000000

     crystal axes: (cart. coord. in units of alat)
               a(1) = (  -0.500000   0.000000   0.500000 )  
               a(2) = (   0.000000   0.500000   0.500000 )  
               a(3) = (  -0.500000   0.500000   0.000000 )  

     reciprocal axes: (cart. coord. in units 2 pi/alat)
               b(1) = ( -1.000000 -1.000000  1.000000 )  
               b(2) = (  1.000000  1.000000  1.000000 )  
               b(3) = ( -1.000000  1.000000 -1.000000 )  


     PseudoPot. # 1 for Si read from file:
     ./Si.pz-n-kjpaw_psl.0.1.UPF
     MD5 check sum: 39d85f6d7c0899aba58824f54593099f
     Pseudo is Projector augmented-wave + core cor, Zval =  4.0
     Generated using "atomic" code by A. Dal Corso  v.5.0.2 svn rev. 9415
     Shape of augmentation charge: PSQ
     Using radial grid of 1141 points,  4 beta functions with: 
                l(1) =   0
                l(2) =   0
                l(3) =   1
                l(4) =   1
     Q(r) pseudized with 0 coefficients 


     atomic species   valence    mass     pseudopotential
        Si             4.00    28.05500     Si( 1.00)

     48 Sym. Ops., with inversion, found (24 have fractional translation)



   Cartesian axes

     site n.     atom                  positions (alat units)
         1           Si  tau(   1) = (   0.0000000   0.0000000   0.0000000  )
         2           Si  tau(   2) = (  -0.2500000   0.2500000   0.2500000  )

     number of k points=    35
                       cart. coord. in units 2pi/alat
        k(    1) = (   0.0000000   0.0000000   0.0000000), wk =   0.0027435
        k(    2) = (  -0.1111111   0.1111111  -0.1111111), wk =   0.0219479
        k(    3) = (  -0.2222222   0.2222222  -0.2222222), wk =   0.0219479
        k(    4) = (  -0.3333333   0.3333333  -0.3333333), wk =   0.0219479
        k(    5) = (  -0.4444444   0.4444444  -0.4444444), wk =   0.0219479
        k(    6) = (   0.0000000   0.2222222   0.0000000), wk =   0.0164609
        k(    7) = (  -0.1111111   0.3333333  -0.1111111), wk =   0.0658436
        k(    8) = (  -0.2222222   0.4444444  -0.2222222), wk =   0.0658436
        k(    9) = (  -0.3333333   0.5555556  -0.3333333), wk =   0.0658436
        k(   10) = (   0.5555556  -0.3333333   0.5555556), wk =   0.0658436
        k(   11) = (   0.4444444  -0.2222222   0.4444444), wk =   0.0658436
        k(   12) = (   0.3333333  -0.1111111   0.3333333), wk =   0.0658436
        k(   13) = (   0.2222222  -0.0000000   0.2222222), wk =   0.0329218
        k(   14) = (   0.0000000   0.4444444   0.0000000), wk =   0.0164609
        k(   15) = (  -0.1111111   0.5555556  -0.1111111), wk =   0.0658436
        k(   16) = (  -0.2222222   0.6666667  -0.2222222), wk =   0.0658436
        k(   17) = (   0.6666667  -0.2222222   0.6666667), wk =   0.0658436
        k(   18) = (   0.5555556  -0.1111111   0.5555556), wk =   0.0658436
        k(   19) = (   0.4444444   0.0000000   0.4444444), wk =   0.0329218
        k(   20) = (   0.0000000   0.6666667   0.0000000), wk =   0.0164609
        k(   21) = (  -0.1111111   0.7777778  -0.1111111), wk =   0.0658436
        k(   22) = (   0.7777778  -0.1111111   0.7777778), wk =   0.0658436
        k(   23) = (   0.6666667  -0.0000000   0.6666667), wk =   0.0329218
        k(   24) = (   0.0000000   0.8888889   0.0000000), wk =   0.0164609
        k(   25) = (   0.8888889   0.0000000   0.8888889), wk =   0.0329218
        k(   26) = (  -0.2222222   0.4444444   0.0000000), wk =   0.0658436
        k(   27) = (  -0.3333333   0.5555556  -0.1111111), wk =   0.1316872
        k(   28) = (   0.5555556  -0.3333333   0.7777778), wk =   0.1316872
        k(   29) = (  -0.2222222   0.6666667   0.0000000), wk =   0.0658436
        k(   30) = (   0.6666667  -0.2222222   0.8888889), wk =   0.1316872
        k(   31) = (   0.5555556  -0.1111111   0.7777778), wk =   0.1316872
        k(   32) = (   0.4444444   0.0000000   0.6666667), wk =   0.0658436
        k(   33) = (   0.7777778  -0.1111111   1.0000000), wk =   0.0658436
        k(   34) = (   0.6666667  -0.0000000   0.8888889), wk =   0.0658436
        k(   35) = (   0.5555556  -0.1111111   1.0000000), wk =   0.0658436

     Dense  grid:    13803 G-vectors     FFT dimensions: (  36,  36,  36)

     Largest allocated arrays     est. size (Mb)     dimensions
        Kohn-Sham Wavefunctions         0.11 Mb     (    1759,    4)
        NL pseudopotentials             0.43 Mb     (    1759,   16)
        Each V/rho on FFT grid          0.71 Mb     (   46656)
        Each G-vector array             0.11 Mb     (   13803)
        G-vector shells                 0.00 Mb     (     188)
     Largest temporary arrays     est. size (Mb)     dimensions
        Auxiliary wavefunctions         0.43 Mb     (    1759,   16)
        Each subspace H/S matrix        0.00 Mb     (      16,   16)
        Each <psi_i|beta_j> matrix      0.00 Mb     (      16,    4)
        Arrays for rho mixing           5.70 Mb     (   46656,    8)

     Initial potential from superposition of free atoms

     starting charge    7.99900, renormalised to    8.00000
     Starting wfc are    8 randomized atomic wfcs
     Checking if some PAW data can be deallocated... 

     total cpu time spent up to now is        0.8 secs

     per-process dynamical memory:    14.8 Mb

     Self-consistent Calculation

     iteration #  1     ecut=    50.00 Ry     beta=0.70
     Davidson diagonalization with overlap
     ethr =  1.00E-02,  avg # of iterations =  2.0

     Threshold (ethr) on eigenvalues was too large:
     Diagonalizing with lowered threshold

     Davidson diagonalization with overlap
     ethr =  6.66E-04,  avg # of iterations =  1.0

     total cpu time spent up to now is        2.0 secs

     total energy              =     -89.28142504 Ry
     Harris-Foulkes estimate   =     -89.29882491 Ry
     estimated scf accuracy    <       0.05260032 Ry

     iteration #  2     ecut=    50.00 Ry     beta=0.70
     Davidson diagonalization with overlap
     ethr =  6.58E-04,  avg # of iterations =  1.0

     total cpu time spent up to now is        2.6 secs

     total energy              =     -89.28361052 Ry
     Harris-Foulkes estimate   =     -89.28404242 Ry
     estimated scf accuracy    <       0.00198762 Ry

     iteration #  3     ecut=    50.00 Ry     beta=0.70
     Davidson diagonalization with overlap
     ethr =  2.48E-05,  avg # of iterations =  2.6

     total cpu time spent up to now is        3.3 secs

     total energy              =     -89.28397802 Ry
     Harris-Foulkes estimate   =     -89.28401490 Ry
     estimated scf accuracy    <       0.00006094 Ry

     iteration #  4     ecut=    50.00 Ry     beta=0.70
     Davidson diagonalization with overlap
     ethr =  7.62E-07,  avg # of iterations =  2.3

     total cpu time spent up to now is        4.1 secs

     total energy              =     -89.28399791 Ry
     Harris-Foulkes estimate   =     -89.28400209 Ry
     estimated scf accuracy    <       0.00000772 Ry

     iteration #  5     ecut=    50.00 Ry     beta=0.70
     Davidson diagonalization with overlap
     ethr =  9.65E-08,  avg # of iterations =  2.1

     total cpu time spent up to now is        4.8 secs

     End of self-consistent calculation

          k = 0.0000 0.0000 0.0000 (  1759 PWs)   bands (ev):

    -6.1612   5.3924   5.3924   5.3924

          k =-0.1111 0.1111-0.1111 (  1732 PWs)   bands (ev):

    -6.0081   4.0321   5.1688   5.1688

          k =-0.2222 0.2222-0.2222 (  1727 PWs)   bands (ev):

    -5.5590   2.0292   4.7654   4.7654

          k =-0.3333 0.3333-0.3333 (  1730 PWs)   bands (ev):

    -4.8609   0.2084   4.4412   4.4412

          k =-0.4444 0.4444-0.4444 (  1712 PWs)   bands (ev):

    -4.1250  -1.1050   4.2716   4.2716

          k = 0.0000 0.2222 0.0000 (  1732 PWs)   bands (ev):

    -5.9566   4.1924   4.7590   4.7590

          k =-0.1111 0.3333-0.1111 (  1732 PWs)   bands (ev):

    -5.6041   2.5967   4.3101   4.4022

          k =-0.2222 0.4444-0.2222 (  1716 PWs)   bands (ev):

    -4.9800   0.7882   3.9095   4.0175

          k =-0.3333 0.5556-0.3333 (  1710 PWs)   bands (ev):

    -4.2066  -0.7113   3.4933   3.9354

          k = 0.5556-0.3333 0.5556 (  1724 PWs)   bands (ev):

    -3.8585  -1.2433   3.2520   4.0646

          k = 0.4444-0.2222 0.4444 (  1718 PWs)   bands (ev):

    -4.4660  -0.2637   3.2297   4.3755

          k = 0.3333-0.1111 0.3333 (  1722 PWs)   bands (ev):

    -5.2169   1.3704   3.4671   4.8007

          k = 0.2222-0.0000 0.2222 (  1743 PWs)   bands (ev):

    -5.7555   3.0515   4.1066   5.1746

          k = 0.0000 0.4444 0.0000 (  1716 PWs)   bands (ev):

    -5.3489   2.3159   3.8176   3.8176

          k =-0.1111 0.5556-0.1111 (  1711 PWs)   bands (ev):

    -4.8103   1.0608   3.2062   3.4915

          k =-0.2222 0.6667-0.2222 (  1718 PWs)   bands (ev):

    -4.0587  -0.3158   2.4885   3.3961

          k = 0.6667-0.2222 0.6667 (  1714 PWs)   bands (ev):

    -3.4528  -1.1882   1.9929   3.5408

          k = 0.5556-0.1111 0.5556 (  1729 PWs)   bands (ev):

    -3.8346  -0.6526   1.8326   3.8994

          k = 0.4444 0.0000 0.4444 (  1720 PWs)   bands (ev):

    -4.6056   0.5190   2.2151   4.3908

          k = 0.0000 0.6667 0.0000 (  1712 PWs)   bands (ev):

    -4.3575   0.4139   3.1109   3.1109

          k =-0.1111 0.7778-0.1111 (  1715 PWs)   bands (ev):

    -3.6601  -0.5815   2.4252   2.9606

          k = 0.7778-0.1111 0.7778 (  1713 PWs)   bands (ev):

    -2.9195  -1.4243   1.5739   3.0611

          k = 0.6667-0.0000 0.6667 (  1700 PWs)   bands (ev):

    -3.0894  -1.2367   1.2316   3.3965

          k = 0.0000 0.8889 0.0000 (  1720 PWs)   bands (ev):

    -3.0199  -1.3991   2.7436   2.7436

          k = 0.8889 0.0000 0.8889 (  1714 PWs)   bands (ev):

    -2.2962  -2.1279   2.1670   2.7788

          k =-0.2222 0.4444 0.0000 (  1722 PWs)   bands (ev):

    -5.1596   1.6160   3.1539   4.2778

          k =-0.3333 0.5556-0.1111 (  1715 PWs)   bands (ev):

    -4.4664   0.2119   2.5546   3.8714

          k = 0.5556-0.3333 0.7778 (  1725 PWs)   bands (ev):

    -3.7244  -0.9899   2.3520   3.5727

          k =-0.2222 0.6667 0.0000 (  1705 PWs)   bands (ev):

    -4.1946   0.1329   2.4795   3.1382

          k = 0.6667-0.2222 0.8889 (  1709 PWs)   bands (ev):

    -3.4192  -0.8878   1.8452   2.8527

          k = 0.5556-0.1111 0.7778 (  1718 PWs)   bands (ev):

    -3.0834  -1.2797   1.4808   2.9565

          k = 0.4444 0.0000 0.6667 (  1714 PWs)   bands (ev):

    -3.7365  -0.5278   1.6256   3.3656

          k = 0.7778-0.1111 1.0000 (  1709 PWs)   bands (ev):

    -2.9141  -1.4190   2.2115   2.4159

          k = 0.6667-0.0000 0.8889 (  1715 PWs)   bands (ev):

    -2.4327  -1.8507   1.5379   2.4965

          k = 0.5556-0.1111 1.0000 (  1719 PWs)   bands (ev):

    -2.6625  -1.5600   1.5711   2.1820

     highest occupied level (ev):     5.3924

!    total energy              =     -89.28399978 Ry
     Harris-Foulkes estimate   =     -89.28399990 Ry
     estimated scf accuracy    <       0.00000017 Ry

     total all-electron energy =     -1156.150128 Ry

     The total energy is the sum of the following terms:

     one-electron contribution =       5.26616973 Ry
     hartree contribution      =       1.14900827 Ry
     xc contribution           =     -12.08816150 Ry
     ewald contribution        =     -16.44823833 Ry
     one-center paw contrib.   =     -67.16277794 Ry

     convergence has been achieved in   5 iterations

     Forces acting on atoms (Ry/au):

     atom    1 type  1   force =    -0.00000000   -0.00000000   -0.00000000
     atom    2 type  1   force =    -0.00000000   -0.00000000    0.00000000

     Total force =     0.000000     Total SCF correction =     0.000000


     entering subroutine stress ...

          total   stress  (Ry/bohr**3)                   (kbar)     P=  -65.61
  -0.00044602  -0.00000000  -0.00000000        -65.61     -0.00     -0.00
  -0.00000000  -0.00044602  -0.00000000         -0.00    -65.61     -0.00
   0.00000000   0.00000000  -0.00044602          0.00      0.00    -65.61


     Writing output data file pwscf.save
 
     init_run     :      0.64s CPU      0.64s WALL (       1 calls)
     electrons    :      4.04s CPU      4.08s WALL (       1 calls)
     forces       :      0.05s CPU      0.05s WALL (       1 calls)
     stress       :      0.22s CPU      0.22s WALL (       1 calls)

     Called by init_run:
     wfcinit      :      0.39s CPU      0.40s WALL (       1 calls)
     potinit      :      0.02s CPU      0.02s WALL (       1 calls)

     Called by electrons:
     c_bands      :      3.20s CPU      3.22s WALL (       6 calls)
     sum_band     :      0.70s CPU      0.71s WALL (       6 calls)
     v_of_rho     :      0.02s CPU      0.02s WALL (       6 calls)
     newd         :      0.05s CPU      0.05s WALL (       6 calls)
     mix_rho      :      0.01s CPU      0.01s WALL (       6 calls)

     Called by c_bands:
     init_us_2    :      0.16s CPU      0.15s WALL (     525 calls)
     cegterg      :      2.96s CPU      2.97s WALL (     210 calls)

     Called by *egterg:
     h_psi        :      3.12s CPU      3.13s WALL (     631 calls)
     s_psi        :      0.05s CPU      0.04s WALL (     631 calls)
     g_psi        :      0.03s CPU      0.03s WALL (     386 calls)
     cdiaghg      :      0.03s CPU      0.02s WALL (     561 calls)

     Called by h_psi:
     add_vuspsi   :      0.04s CPU      0.04s WALL (     631 calls)

     General routines
     calbec       :      0.06s CPU      0.07s WALL (     911 calls)
     fft          :      0.04s CPU      0.04s WALL (      46 calls)
     fftw         :      3.24s CPU      3.26s WALL (    5792 calls)
     davcio       :      0.00s CPU      0.00s WALL (      35 calls)
 
     Parallel routines
     fft_scatter  :      0.21s CPU      0.20s WALL (    5838 calls)

     PAW routines
     PAW_pot      :      0.08s CPU      0.08s WALL (       6 calls)
     PAW_symme    :      0.00s CPU      0.00s WALL (      12 calls)
 
     PWSCF        :     5.15s CPU         5.26s WALL

 
   This run was terminated on:  15:52:52   1May2015            

=------------------------------------------------------------------------------=
   JOB DONE.
=------------------------------------------------------------------------------=
