 argument  1 = H2.nw
                                         
                                         


              Northwest Computational Chemistry Package (NWChem) 6.3
              ------------------------------------------------------


                    Environmental Molecular Sciences Laboratory
                       Pacific Northwest National Laboratory
                                Richland, WA 99352

                              Copyright (c) 1994-2012
                       Pacific Northwest National Laboratory
                            Battelle Memorial Institute

             NWChem is an open-source computational chemistry package
                        distributed under the terms of the
                      Educational Community License (ECL) 2.0
             A copy of the license is included with this distribution
                              in the LICENSE.TXT file

                                  ACKNOWLEDGMENT
                                  --------------

            This software and its documentation were developed at the
            EMSL at Pacific Northwest National Laboratory, a multiprogram
            national laboratory, operated for the U.S. Department of Energy
            by Battelle under Contract Number DE-AC05-76RL01830. Support
            for this work was provided by the Department of Energy Office
            of Biological and Environmental Research, Office of Basic
            Energy Sciences, and the Office of Advanced Scientific Computing.


           Job information
           ---------------

    hostname        = ChensPro.local
    program         = nwchem
    date            = Sun Apr 19 22:38:27 2015

    compiled        = Sat_Jul_20_13:52:43_2013
    source          = /Users/shyuepingong/Software/nwchem-6.3
    nwchem branch   = 6.3
    nwchem revision = 24277
    ga revision     = 10379
    input           = H2.nw
    prefix          = H2.
    data base       = ./H2.db
    status          = startup
    nproc           =        1
    time left       =     -1s



           Memory information
           ------------------

    heap     =   32768001 doubles =    250.0 Mbytes
    stack    =   32768001 doubles =    250.0 Mbytes
    global   =   65536000 doubles =    500.0 Mbytes (distinct from heap & stack)
    total    =  131072002 doubles =   1000.0 Mbytes
    verify   = yes
    hardfail = no 


           Directory information
           ---------------------

  0 permanent = .
  0 scratch   = .




                                NWChem Input Module
                                -------------------



 Scaling coordinates for geometry "geometry" by  1.889725989
 (inverse scale =  0.529177249)

 ORDER OF PRIMARY AXIS IS BEING SET TO 4
 D4H symmetry detected

          ------
          auto-z
          ------


                             Geometry "geometry" -> ""
                             -------------------------

 Output coordinates in angstroms (scale by  1.889725989 to convert to a.u.)

  No.       Tag          Charge          X              Y              Z
 ---- ---------------- ---------- -------------- -------------- --------------
    1 H                    1.0000     0.00000000     0.00000000    -0.37070000
    2 H                    1.0000     0.00000000     0.00000000     0.37070000

      Atomic Mass 
      ----------- 

      H                  1.007825


 Effective nuclear repulsion energy (a.u.)       0.7137540450

            Nuclear Dipole moment (a.u.) 
            ----------------------------
        X                 Y               Z
 ---------------- ---------------- ----------------
     0.0000000000     0.0000000000     0.0000000000

      Symmetry information
      --------------------

 Group name             D4h       
 Group number             28
 Group order              16
 No. of unique centers     1

      Symmetry unique atoms

     1



                                Z-matrix (autoz)
                                -------- 

 Units are Angstrom for bonds and degrees for angles

      Type          Name      I     J     K     L     M      Value
      ----------- --------  ----- ----- ----- ----- ----- ----------
    1 Stretch                  1     2                       0.74140


            XYZ format geometry
            -------------------
     2
 geometry
 H                     0.00000000     0.00000000    -0.37070000
 H                     0.00000000     0.00000000     0.37070000

                                  H2 dft optimize
                                  ---------------
  library name resolved from: environment
  library file name is: </Users/chenzheng/Google Drive/nano266/resources/nwchem_basis/>
  
                      Basis "ao basis" -> "" (cartesian)
                      -----
  H (Hydrogen)
  ------------
            Exponent  Coefficients 
       -------------- ---------------------------------------------------------
  1 S  3.38650000E+01  0.025494
  1 S  5.09479000E+00  0.190373
  1 S  1.15879000E+00  0.852161

  2 S  3.25840000E-01  1.000000

  3 S  1.02741000E-01  1.000000



 Summary of "ao basis" -> "" (cartesian)
 ------------------------------------------------------------------------------
       Tag                 Description            Shells   Functions and Types
 ---------------- ------------------------------  ------  ---------------------
 H                          6-311+G*                 3        3   3s


  pbe96 is a nonlocal functional; adding pw91lda local functional. 


                           NWChem Geometry Optimization
                           ----------------------------




                                  H2 dft optimize


 maximum gradient threshold         (gmax) =   0.000450
 rms gradient threshold             (grms) =   0.000300
 maximum cartesian step threshold   (xmax) =   0.001800
 rms cartesian step threshold       (xrms) =   0.001200
 fixed trust radius                (trust) =   0.300000
 maximum step size to saddle      (sadstp) =   0.100000
 energy precision                  (eprec) =   5.0D-06
 maximum number of steps          (nptopt) =   20
 initial hessian option           (inhess) =    0
 line search option               (linopt) =    1
 hessian update option            (modupd) =    1
 saddle point option              (modsad) =    0
 initial eigen-mode to follow     (moddir) =    0
 initial variable to follow       (vardir) =    0
 follow first negative mode     (firstneg) =    T
 apply conjugacy                    (opcg) =    F
 source of zmatrix                         =   autoz   


          -------------------
          Energy Minimization
          -------------------


 Names of Z-matrix variables 
    1         

 Variables with the same non-blank name are constrained to be equal


 Using diagonal initial Hessian 
 Scaling for Hessian diagonals: bonds = 1.00  angles = 0.25  torsions = 0.10

          --------
          Step   0
          --------


                         Geometry "geometry" -> "geometry"
                         ---------------------------------

 Output coordinates in angstroms (scale by  1.889725989 to convert to a.u.)

  No.       Tag          Charge          X              Y              Z
 ---- ---------------- ---------- -------------- -------------- --------------
    1 H                    1.0000     0.00000000     0.00000000    -0.37070000
    2 H                    1.0000     0.00000000     0.00000000     0.37070000

      Atomic Mass 
      ----------- 

      H                  1.007825


 Effective nuclear repulsion energy (a.u.)       0.7137540450

            Nuclear Dipole moment (a.u.) 
            ----------------------------
        X                 Y               Z
 ---------------- ---------------- ----------------
     0.0000000000     0.0000000000     0.0000000000

      Symmetry information
      --------------------

 Group name             D4h       
 Group number             28
 Group order              16
 No. of unique centers     1

      Symmetry unique atoms

     1


                                 NWChem DFT Module
                                 -----------------


                                  H2 dft optimize


  Caching 1-el integrals 

            General Information
            -------------------
          SCF calculation type: DFT
          Wavefunction type:  closed shell.
          No. of atoms     :     2
          No. of electrons :     2
           Alpha electrons :     1
            Beta electrons :     1
          Charge           :     0
          Spin multiplicity:     1
          Use of symmetry is: on ; symmetry adaption is: on 
          Maximum number of iterations:  30
          AO basis - number of functions:     6
                     number of shells:     6
          Convergence on energy requested: 1.00D-06
          Convergence on density requested: 1.00D-05
          Convergence on gradient requested: 5.00D-04

              XC Information
              --------------
          PerdewBurkeErnzerhof Exchange Functional  1.000          
            Perdew 1991 LDA Correlation Functional  1.000 local    
           PerdewBurkeErnz. Correlation Functional  1.000 non-local

             Grid Information
             ----------------
          Grid used for XC integration:  medium    
          Radial quadrature: Mura-Knowles        
          Angular quadrature: Lebedev. 
          Tag              B.-S. Rad. Rad. Pts. Rad. Cut. Ang. Pts.
          ---              ---------- --------- --------- ---------
          H                   0.35       45           6.0       434
          Grid pruning is: on 
          Number of quadrature shells:    45
          Spatial weights used:  Erf1

          Convergence Information
          -----------------------
          Convergence aids based upon iterative change in 
          total energy or number of iterations. 
          Levelshifting, if invoked, occurs when the 
          HOMO/LUMO gap drops below (HL_TOL): 1.00D-02
          DIIS, if invoked, will attempt to extrapolate 
          using up to (NFOCK): 10 stored Fock matrices.

                    Damping( 0%)  Levelshifting(0.5)       DIIS
                  --------------- ------------------- ---------------
          dE  on:    start            ASAP                start   
          dE off:    2 iters         30 iters            30 iters 


      Screening Tolerance Information
      -------------------------------
          Density screening/tol_rho: 1.00D-10
          AO Gaussian exp screening on grid/accAOfunc:  14
          CD Gaussian exp screening on grid/accCDfunc:  20
          XC Gaussian exp screening on grid/accXCfunc:  20
          Schwarz screening/accCoul: 1.00D-08


      Superposition of Atomic Density Guess
      -------------------------------------

 Sum of atomic energies:          -0.99961840

      Non-variational initial energy
      ------------------------------

 Total energy =      -0.851012
 1-e energy   =      -2.219233
 2-e energy   =       0.654467
 HOMO         =      -0.583147
 LUMO         =       0.125521


      Symmetry analysis of molecular orbitals - initial
      -------------------------------------------------

  Numbering of irreducible representations: 

     1 a1g         2 a1u         3 a2g         4 a2u         5 b1g     
     6 b1u         7 b2g         8 b2u         9 eg         10 eu      

  Orbital symmetries:

     1 a1g         2 a2u         3 a1g         4 a2u         5 a1g     
     6 a2u     

   Time after variat. SCF:      0.1
   Time prior to 1st pass:      0.1

 #quartets = 1.560D+02 #integrals = 1.560D+02 #direct =  0.0% #cached =100.0%


 Integral file          = ./H2.aoints.0
 Record size in doubles =  65536        No. of integs per rec  =  43688
 Max. records in memory =      2        Max. records in file   = 184915
 No. of bits per label  =      8        No. of bits per value  =     64


 Grid_pts file          = ./H2.gridpts.0
 Record size in doubles =  12289        No. of grid_pts per rec  =   3070
 Max. records in memory =      8        Max. recs in file   =    986136


           Memory utilization after 1st SCF pass: 
           Heap Space remaining (MW):       32.54            32537841
          Stack Space remaining (MW):       32.77            32767855

   convergence    iter        energy       DeltaE   RMS-Dens  Diis-err    time
 ---------------- ----- ----------------- --------- --------- ---------  ------
 d= 0,ls=0.0,diis     1     -1.1610759824 -1.87D+00  1.02D-02  1.46D-02     0.1
 d= 0,ls=0.0,diis     2     -1.1629582282 -1.88D-03  3.44D-03  5.83D-04     0.1
 d= 0,ls=0.0,diis     3     -1.1631036772 -1.45D-04  2.61D-04  6.72D-06     0.1
 d= 0,ls=0.0,diis     4     -1.1631050357 -1.36D-06  3.27D-07  1.22D-11     0.1
  Singularity in Pulay matrix. Error and Fock matrices removed. 
  Singularity in Pulay matrix. Error and Fock matrices removed. 
 d= 0,ls=0.0,diis     5     -1.1631050357 -2.34D-12  3.75D-10  6.58D-18     0.1


         Total DFT energy =       -1.163105035689
      One electron energy =       -2.493071453604
           Coulomb energy =        1.303829302525
    Exchange-Corr. energy =       -0.687616929659
 Nuclear repulsion energy =        0.713754045049

 Numeric. integr. density =        1.999999792025

     Total iterative time =      0.1s



                  Occupations of the irreducible representations
                  ----------------------------------------------

                     irrep           alpha         beta
                     --------     --------     --------
                     a1g               1.0          1.0
                     a1u               0.0          0.0
                     a2g               0.0          0.0
                     a2u               0.0          0.0
                     b1g               0.0          0.0
                     b1u               0.0          0.0
                     b2g               0.0          0.0
                     b2u               0.0          0.0
                     eg                0.0          0.0
                     eu                0.0          0.0


                       DFT Final Molecular Orbital Analysis
                       ------------------------------------

 Vector    1  Occ=2.000000D+00  E=-3.840558D-01  Symmetry=a1g
              MO Center=  0.0D+00,  0.0D+00,  2.2D-16, r^2= 7.4D-01
   Bfn.  Coefficient  Atom+Function         Bfn.  Coefficient  Atom+Function  
  ----- ------------  ---------------      ----- ------------  ---------------
     2      0.279712  1 H  s                  5      0.279712  2 H  s          
     1      0.202337  1 H  s                  4      0.202337  2 H  s          

 Vector    2  Occ=0.000000D+00  E= 4.377603D-02  Symmetry=a2u
              MO Center=  0.0D+00,  0.0D+00, -2.2D-16, r^2= 2.9D+00
   Bfn.  Coefficient  Atom+Function         Bfn.  Coefficient  Atom+Function  
  ----- ------------  ---------------      ----- ------------  ---------------
     3      1.930795  1 H  s                  6     -1.930795  2 H  s          
     2      0.198473  1 H  s                  5     -0.198473  2 H  s          

 Vector    3  Occ=0.000000D+00  E= 1.822638D-01  Symmetry=a1g
              MO Center=  0.0D+00,  0.0D+00, -8.3D-17, r^2= 3.2D+00
   Bfn.  Coefficient  Atom+Function         Bfn.  Coefficient  Atom+Function  
  ----- ------------  ---------------      ----- ------------  ---------------
     3      0.832092  1 H  s                  6      0.832092  2 H  s          
     2     -0.676188  1 H  s                  5     -0.676188  2 H  s          

 Vector    4  Occ=0.000000D+00  E= 4.439499D-01  Symmetry=a2u
              MO Center=  0.0D+00,  0.0D+00,  3.9D-16, r^2= 2.7D+00
   Bfn.  Coefficient  Atom+Function         Bfn.  Coefficient  Atom+Function  
  ----- ------------  ---------------      ----- ------------  ---------------
     3      2.448086  1 H  s                  6     -2.448086  2 H  s          
     2     -1.633946  1 H  s                  5      1.633946  2 H  s          

 Vector    5  Occ=0.000000D+00  E= 2.055862D+00  Symmetry=a1g
              MO Center=  0.0D+00,  0.0D+00, -4.3D-15, r^2= 1.2D+00
   Bfn.  Coefficient  Atom+Function         Bfn.  Coefficient  Atom+Function  
  ----- ------------  ---------------      ----- ------------  ---------------
     2      1.242722  1 H  s                  5      1.242722  2 H  s          
     1     -1.080372  1 H  s                  4     -1.080372  2 H  s          
     3     -0.511017  1 H  s                  6     -0.511017  2 H  s          

 Vector    6  Occ=0.000000D+00  E= 2.327557D+00  Symmetry=a2u
              MO Center=  0.0D+00,  0.0D+00,  3.2D-15, r^2= 1.0D+00
   Bfn.  Coefficient  Atom+Function         Bfn.  Coefficient  Atom+Function  
  ----- ------------  ---------------      ----- ------------  ---------------
     2      1.876401  1 H  s                  5     -1.876401  2 H  s          
     3     -1.293663  1 H  s                  6      1.293663  2 H  s          
     1     -1.123013  1 H  s                  4      1.123013  2 H  s          


 center of mass
 --------------
 x =   0.00000000 y =   0.00000000 z =   0.00000000

 moments of inertia (a.u.)
 ------------------
           0.989140459526           0.000000000000           0.000000000000
           0.000000000000           0.989140459526           0.000000000000
           0.000000000000           0.000000000000           0.000000000000

     Multipole analysis of the density
     ---------------------------------

     L   x y z        total         alpha         beta         nuclear
     -   - - -        -----         -----         ----         -------
     0   0 0 0     -0.000000     -1.000000     -1.000000      2.000000

     1   1 0 0      0.000000      0.000000      0.000000      0.000000
     1   0 1 0      0.000000      0.000000      0.000000      0.000000
     1   0 0 1     -0.000000     -0.000000     -0.000000      0.000000

     2   2 0 0     -1.535962     -0.767981     -0.767981      0.000000
     2   1 1 0      0.000000      0.000000      0.000000      0.000000
     2   1 0 1      0.000000      0.000000      0.000000      0.000000
     2   0 2 0     -1.535962     -0.767981     -0.767981      0.000000
     2   0 1 1      0.000000      0.000000      0.000000      0.000000
     2   0 0 2     -1.226604     -1.104032     -1.104032      0.981461


 Parallel integral file used       1 records with       0 large values



                            NWChem DFT Gradient Module
                            --------------------------


                                  H2 dft optimize



  charge          =   0.00
  wavefunction    = closed shell

  Using symmetry


                         DFT ENERGY GRADIENTS

    atom               coordinates                        gradient
                 x          y          z           x          y          z
   1 H       0.000000   0.000000  -0.700521    0.000000   0.000000   0.006130
   2 H       0.000000   0.000000   0.700521    0.000000   0.000000  -0.006130

                 ----------------------------------------
                 |  Time  |  1-e(secs)   |  2-e(secs)   |
                 ----------------------------------------
                 |  CPU   |       0.00   |       0.00   |
                 ----------------------------------------
                 |  WALL  |       0.00   |       0.00   |
                 ----------------------------------------

@ Step       Energy      Delta E   Gmax     Grms     Xrms     Xmax   Walltime
@ ---- ---------------- -------- -------- -------- -------- -------- --------
@    0      -1.16310504  0.0D+00  0.00613  0.00613  0.00000  0.00000      0.2
                                                                    



                                Z-matrix (autoz)
                                -------- 

 Units are Angstrom for bonds and degrees for angles

      Type          Name      I     J     K     L     M      Value     Gradient
      ----------- --------  ----- ----- ----- ----- ----- ---------- ----------
    1 Stretch                  1     2                       0.74140   -0.00613


                                 NWChem DFT Module
                                 -----------------


                                  H2 dft optimize


  Caching 1-el integrals 

            General Information
            -------------------
          SCF calculation type: DFT
          Wavefunction type:  closed shell.
          No. of atoms     :     2
          No. of electrons :     2
           Alpha electrons :     1
            Beta electrons :     1
          Charge           :     0
          Spin multiplicity:     1
          Use of symmetry is: on ; symmetry adaption is: on 
          Maximum number of iterations:  30
          AO basis - number of functions:     6
                     number of shells:     6
          Convergence on energy requested: 1.00D-06
          Convergence on density requested: 1.00D-05
          Convergence on gradient requested: 5.00D-04

              XC Information
              --------------
          PerdewBurkeErnzerhof Exchange Functional  1.000          
            Perdew 1991 LDA Correlation Functional  1.000 local    
           PerdewBurkeErnz. Correlation Functional  1.000 non-local

             Grid Information
             ----------------
          Grid used for XC integration:  medium    
          Radial quadrature: Mura-Knowles        
          Angular quadrature: Lebedev. 
          Tag              B.-S. Rad. Rad. Pts. Rad. Cut. Ang. Pts.
          ---              ---------- --------- --------- ---------
          H                   0.35       45           6.0       434
          Grid pruning is: on 
          Number of quadrature shells:    45
          Spatial weights used:  Erf1

          Convergence Information
          -----------------------
          Convergence aids based upon iterative change in 
          total energy or number of iterations. 
          Levelshifting, if invoked, occurs when the 
          HOMO/LUMO gap drops below (HL_TOL): 1.00D-02
          DIIS, if invoked, will attempt to extrapolate 
          using up to (NFOCK): 10 stored Fock matrices.

                    Damping( 0%)  Levelshifting(0.5)       DIIS
                  --------------- ------------------- ---------------
          dE  on:    start            ASAP                start   
          dE off:    2 iters         30 iters            30 iters 


      Screening Tolerance Information
      -------------------------------
          Density screening/tol_rho: 1.00D-10
          AO Gaussian exp screening on grid/accAOfunc:  14
          CD Gaussian exp screening on grid/accCDfunc:  20
          XC Gaussian exp screening on grid/accXCfunc:  20
          Schwarz screening/accCoul: 1.00D-08


 Loading old vectors from job with title :

H2 dft optimize


      Symmetry analysis of molecular orbitals - initial
      -------------------------------------------------

  Numbering of irreducible representations: 

     1 a1g         2 a1u         3 a2g         4 a2u         5 b1g     
     6 b1u         7 b2g         8 b2u         9 eg         10 eu      

  Orbital symmetries:

     1 a1g         2 a2u         3 a1g         4 a2u         5 a1g     
     6 a2u     

   Time after variat. SCF:      0.2
   Time prior to 1st pass:      0.2

 #quartets = 1.560D+02 #integrals = 1.560D+02 #direct =  0.0% #cached =100.0%


 Integral file          = ./H2.aoints.0
 Record size in doubles =  65536        No. of integs per rec  =  43688
 Max. records in memory =      2        Max. records in file   = 184915
 No. of bits per label  =      8        No. of bits per value  =     64


 Grid_pts file          = ./H2.gridpts.0
 Record size in doubles =  12289        No. of grid_pts per rec  =   3070
 Max. records in memory =      8        Max. recs in file   =    986136


           Memory utilization after 1st SCF pass: 
           Heap Space remaining (MW):       32.54            32537841
          Stack Space remaining (MW):       32.77            32767855

   convergence    iter        energy       DeltaE   RMS-Dens  Diis-err    time
 ---------------- ----- ----------------- --------- --------- ---------  ------
 d= 0,ls=0.0,diis     1     -1.1631289353 -1.87D+00  1.01D-03  1.79D-04     0.2
 d= 0,ls=0.0,diis     2     -1.1631500793 -2.11D-05  3.64D-04  5.82D-06     0.2
 d= 0,ls=0.0,diis     3     -1.1631515653 -1.49D-06  3.50D-05  1.07D-07     0.2
 d= 0,ls=0.0,diis     4     -1.1631515879 -2.26D-08  4.30D-09  1.69D-15     0.2


         Total DFT energy =       -1.163151587898
      One electron energy =       -2.477504290468
           Coulomb energy =        1.295693025578
    Exchange-Corr. energy =       -0.683858460291
 Nuclear repulsion energy =        0.702518137283

 Numeric. integr. density =        2.000000007089

     Total iterative time =      0.1s



                  Occupations of the irreducible representations
                  ----------------------------------------------

                     irrep           alpha         beta
                     --------     --------     --------
                     a1g               1.0          1.0
                     a1u               0.0          0.0
                     a2g               0.0          0.0
                     a2u               0.0          0.0
                     b1g               0.0          0.0
                     b1u               0.0          0.0
                     b2g               0.0          0.0
                     b2u               0.0          0.0
                     eg                0.0          0.0
                     eu                0.0          0.0


                       DFT Final Molecular Orbital Analysis
                       ------------------------------------

 Vector    1  Occ=2.000000D+00  E=-3.819994D-01  Symmetry=a1g
              MO Center=  0.0D+00,  0.0D+00, -2.3D-17, r^2= 7.5D-01
   Bfn.  Coefficient  Atom+Function         Bfn.  Coefficient  Atom+Function  
  ----- ------------  ---------------      ----- ------------  ---------------
     2      0.280813  1 H  s                  5      0.280813  2 H  s          
     1      0.200819  1 H  s                  4      0.200819  2 H  s          

 Vector    2  Occ=0.000000D+00  E= 4.117270D-02  Symmetry=a2u
              MO Center=  0.0D+00,  0.0D+00,  2.2D-16, r^2= 2.8D+00
   Bfn.  Coefficient  Atom+Function         Bfn.  Coefficient  Atom+Function  
  ----- ------------  ---------------      ----- ------------  ---------------
     3      1.887973  1 H  s                  6     -1.887973  2 H  s          
     2      0.203337  1 H  s                  5     -0.203337  2 H  s          

 Vector    3  Occ=0.000000D+00  E= 1.829303D-01  Symmetry=a1g
              MO Center=  0.0D+00,  0.0D+00, -3.3D-16, r^2= 3.2D+00
   Bfn.  Coefficient  Atom+Function         Bfn.  Coefficient  Atom+Function  
  ----- ------------  ---------------      ----- ------------  ---------------
     3      0.834146  1 H  s                  6      0.834146  2 H  s          
     2     -0.681472  1 H  s                  5     -0.681472  2 H  s          

 Vector    4  Occ=0.000000D+00  E= 4.390860D-01  Symmetry=a2u
              MO Center=  0.0D+00,  0.0D+00, -4.4D-16, r^2= 2.7D+00
   Bfn.  Coefficient  Atom+Function         Bfn.  Coefficient  Atom+Function  
  ----- ------------  ---------------      ----- ------------  ---------------
     3      2.424115  1 H  s                  6     -2.424115  2 H  s          
     2     -1.608309  1 H  s                  5      1.608309  2 H  s          

 Vector    5  Occ=0.000000D+00  E= 2.070879D+00  Symmetry=a1g
              MO Center=  0.0D+00,  0.0D+00,  2.5D-16, r^2= 1.2D+00
   Bfn.  Coefficient  Atom+Function         Bfn.  Coefficient  Atom+Function  
  ----- ------------  ---------------      ----- ------------  ---------------
     2      1.244420  1 H  s                  5      1.244420  2 H  s          
     1     -1.085402  1 H  s                  4     -1.085402  2 H  s          
     3     -0.510603  1 H  s                  6     -0.510603  2 H  s          

 Vector    6  Occ=0.000000D+00  E= 2.313802D+00  Symmetry=a2u
              MO Center=  0.0D+00,  0.0D+00, -1.5D-16, r^2= 1.0D+00
   Bfn.  Coefficient  Atom+Function         Bfn.  Coefficient  Atom+Function  
  ----- ------------  ---------------      ----- ------------  ---------------
     2      1.865260  1 H  s                  5     -1.865260  2 H  s          
     3     -1.283783  1 H  s                  6      1.283783  2 H  s          
     1     -1.118207  1 H  s                  4      1.118207  2 H  s          


 center of mass
 --------------
 x =   0.00000000 y =   0.00000000 z =   0.00000000

 moments of inertia (a.u.)
 ------------------
           1.021033635915           0.000000000000           0.000000000000
           0.000000000000           1.021033635915           0.000000000000
           0.000000000000           0.000000000000           0.000000000000

     Multipole analysis of the density
     ---------------------------------

     L   x y z        total         alpha         beta         nuclear
     -   - - -        -----         -----         ----         -------
     0   0 0 0     -0.000000     -1.000000     -1.000000      2.000000

     1   1 0 0      0.000000      0.000000      0.000000      0.000000
     1   0 1 0      0.000000      0.000000      0.000000      0.000000
     1   0 0 1      0.000000      0.000000      0.000000      0.000000

     2   2 0 0     -1.547520     -0.773760     -0.773760      0.000000
     2   1 1 0      0.000000      0.000000      0.000000      0.000000
     2   1 0 1      0.000000      0.000000      0.000000      0.000000
     2   0 2 0     -1.547520     -0.773760     -0.773760      0.000000
     2   0 1 1      0.000000      0.000000      0.000000      0.000000
     2   0 0 2     -1.229579     -1.121343     -1.121343      1.013106


 Parallel integral file used       1 records with       0 large values

 Line search: 
     step= 1.00 grad=-1.4D-04 hess= 9.1D-05 energy=     -1.163152 mode=downhill
 new step= 0.76                   predicted energy=     -1.163157

          --------
          Step   1
          --------


                         Geometry "geometry" -> "geometry"
                         ---------------------------------

 Output coordinates in angstroms (scale by  1.889725989 to convert to a.u.)

  No.       Tag          Charge          X              Y              Z
 ---- ---------------- ---------- -------------- -------------- --------------
    1 H                    1.0000     0.00000000     0.00000000    -0.37518422
    2 H                    1.0000     0.00000000     0.00000000     0.37518422

      Atomic Mass 
      ----------- 

      H                  1.007825


 Effective nuclear repulsion energy (a.u.)       0.7052232229

            Nuclear Dipole moment (a.u.) 
            ----------------------------
        X                 Y               Z
 ---------------- ---------------- ----------------
     0.0000000000     0.0000000000     0.0000000000

      Symmetry information
      --------------------

 Group name             D4h       
 Group number             28
 Group order              16
 No. of unique centers     1

      Symmetry unique atoms

     1


                                 NWChem DFT Module
                                 -----------------


                                  H2 dft optimize


  Caching 1-el integrals 

            General Information
            -------------------
          SCF calculation type: DFT
          Wavefunction type:  closed shell.
          No. of atoms     :     2
          No. of electrons :     2
           Alpha electrons :     1
            Beta electrons :     1
          Charge           :     0
          Spin multiplicity:     1
          Use of symmetry is: on ; symmetry adaption is: on 
          Maximum number of iterations:  30
          AO basis - number of functions:     6
                     number of shells:     6
          Convergence on energy requested: 1.00D-06
          Convergence on density requested: 1.00D-05
          Convergence on gradient requested: 5.00D-04

              XC Information
              --------------
          PerdewBurkeErnzerhof Exchange Functional  1.000          
            Perdew 1991 LDA Correlation Functional  1.000 local    
           PerdewBurkeErnz. Correlation Functional  1.000 non-local

             Grid Information
             ----------------
          Grid used for XC integration:  medium    
          Radial quadrature: Mura-Knowles        
          Angular quadrature: Lebedev. 
          Tag              B.-S. Rad. Rad. Pts. Rad. Cut. Ang. Pts.
          ---              ---------- --------- --------- ---------
          H                   0.35       45           6.0       434
          Grid pruning is: on 
          Number of quadrature shells:    45
          Spatial weights used:  Erf1

          Convergence Information
          -----------------------
          Convergence aids based upon iterative change in 
          total energy or number of iterations. 
          Levelshifting, if invoked, occurs when the 
          HOMO/LUMO gap drops below (HL_TOL): 1.00D-02
          DIIS, if invoked, will attempt to extrapolate 
          using up to (NFOCK): 10 stored Fock matrices.

                    Damping( 0%)  Levelshifting(0.5)       DIIS
                  --------------- ------------------- ---------------
          dE  on:    start            ASAP                start   
          dE off:    2 iters         30 iters            30 iters 


      Screening Tolerance Information
      -------------------------------
          Density screening/tol_rho: 1.00D-10
          AO Gaussian exp screening on grid/accAOfunc:  14
          CD Gaussian exp screening on grid/accCDfunc:  20
          XC Gaussian exp screening on grid/accXCfunc:  20
          Schwarz screening/accCoul: 1.00D-08


 Loading old vectors from job with title :

H2 dft optimize


      Symmetry analysis of molecular orbitals - initial
      -------------------------------------------------

  Numbering of irreducible representations: 

     1 a1g         2 a1u         3 a2g         4 a2u         5 b1g     
     6 b1u         7 b2g         8 b2u         9 eg         10 eu      

  Orbital symmetries:

     1 a1g         2 a2u         3 a1g         4 a2u         5 a1g     
     6 a2u     

   Time after variat. SCF:      0.2
   Time prior to 1st pass:      0.2

 #quartets = 1.560D+02 #integrals = 1.560D+02 #direct =  0.0% #cached =100.0%


 Integral file          = ./H2.aoints.0
 Record size in doubles =  65536        No. of integs per rec  =  43688
 Max. records in memory =      2        Max. records in file   = 184915
 No. of bits per label  =      8        No. of bits per value  =     64


 Grid_pts file          = ./H2.gridpts.0
 Record size in doubles =  12289        No. of grid_pts per rec  =   3070
 Max. records in memory =      8        Max. recs in file   =    986136


           Memory utilization after 1st SCF pass: 
           Heap Space remaining (MW):       32.54            32537841
          Stack Space remaining (MW):       32.77            32767855

   convergence    iter        energy       DeltaE   RMS-Dens  Diis-err    time
 ---------------- ----- ----------------- --------- --------- ---------  ------
 d= 0,ls=0.0,diis     1     -1.1631553305 -1.87D+00  2.46D-04  1.05D-05     0.3
 d= 0,ls=0.0,diis     2     -1.1631565715 -1.24D-06  8.80D-05  3.44D-07     0.3
 d= 0,ls=0.0,diis     3     -1.1631566591 -8.76D-08  8.36D-06  6.22D-09     0.3


         Total DFT energy =       -1.163156659120
      One electron energy =       -2.481258637664
           Coulomb energy =        1.297628971306
    Exchange-Corr. energy =       -0.684750215689
 Nuclear repulsion energy =        0.705223222927

 Numeric. integr. density =        1.999999953710

     Total iterative time =      0.1s



                  Occupations of the irreducible representations
                  ----------------------------------------------

                     irrep           alpha         beta
                     --------     --------     --------
                     a1g               1.0          1.0
                     a1u               0.0          0.0
                     a2g               0.0          0.0
                     a2u               0.0          0.0
                     b1g               0.0          0.0
                     b1u               0.0          0.0
                     b2g               0.0          0.0
                     b2u               0.0          0.0
                     eg                0.0          0.0
                     eu                0.0          0.0


                       DFT Final Molecular Orbital Analysis
                       ------------------------------------

 Vector    1  Occ=2.000000D+00  E=-3.824975D-01  Symmetry=a1g
              MO Center=  0.0D+00,  0.0D+00, -1.4D-17, r^2= 7.5D-01
   Bfn.  Coefficient  Atom+Function         Bfn.  Coefficient  Atom+Function  
  ----- ------------  ---------------      ----- ------------  ---------------
     2      0.280548  1 H  s                  5      0.280548  2 H  s          
     1      0.201187  1 H  s                  4      0.201187  2 H  s          

 Vector    2  Occ=0.000000D+00  E= 4.180947D-02  Symmetry=a2u
              MO Center=  0.0D+00,  0.0D+00,  0.0D+00, r^2= 2.8D+00
   Bfn.  Coefficient  Atom+Function         Bfn.  Coefficient  Atom+Function  
  ----- ------------  ---------------      ----- ------------  ---------------
     3      1.898294  1 H  s                  6     -1.898294  2 H  s          
     2      0.202162  1 H  s                  5     -0.202162  2 H  s          

 Vector    3  Occ=0.000000D+00  E= 1.827675D-01  Symmetry=a1g
              MO Center=  0.0D+00,  0.0D+00,  1.2D-15, r^2= 3.2D+00
   Bfn.  Coefficient  Atom+Function         Bfn.  Coefficient  Atom+Function  
  ----- ------------  ---------------      ----- ------------  ---------------
     3      0.833646  1 H  s                  6      0.833646  2 H  s          
     2     -0.680186  1 H  s                  5     -0.680186  2 H  s          

 Vector    4  Occ=0.000000D+00  E= 4.402632D-01  Symmetry=a2u
              MO Center=  0.0D+00,  0.0D+00, -1.7D-16, r^2= 2.7D+00
   Bfn.  Coefficient  Atom+Function         Bfn.  Coefficient  Atom+Function  
  ----- ------------  ---------------      ----- ------------  ---------------
     3      2.429879  1 H  s                  6     -2.429879  2 H  s          
     2     -1.614472  1 H  s                  5      1.614472  2 H  s          

 Vector    5  Occ=0.000000D+00  E= 2.067247D+00  Symmetry=a1g
              MO Center=  0.0D+00,  0.0D+00,  1.5D-16, r^2= 1.2D+00
   Bfn.  Coefficient  Atom+Function         Bfn.  Coefficient  Atom+Function  
  ----- ------------  ---------------      ----- ------------  ---------------
     2      1.244023  1 H  s                  5      1.244023  2 H  s          
     1     -1.084201  1 H  s                  4     -1.084201  2 H  s          
     3     -0.510709  1 H  s                  6     -0.510709  2 H  s          

 Vector    6  Occ=0.000000D+00  E= 2.317090D+00  Symmetry=a2u
              MO Center=  0.0D+00,  0.0D+00, -3.7D-16, r^2= 1.0D+00
   Bfn.  Coefficient  Atom+Function         Bfn.  Coefficient  Atom+Function  
  ----- ------------  ---------------      ----- ------------  ---------------
     2      1.867933  1 H  s                  5     -1.867933  2 H  s          
     3     -1.286163  1 H  s                  6      1.286163  2 H  s          
     1     -1.119344  1 H  s                  4      1.119344  2 H  s          


 center of mass
 --------------
 x =   0.00000000 y =   0.00000000 z =   0.00000000

 moments of inertia (a.u.)
 ------------------
           1.013215724787           0.000000000000           0.000000000000
           0.000000000000           1.013215724787           0.000000000000
           0.000000000000           0.000000000000           0.000000000000

     Multipole analysis of the density
     ---------------------------------

     L   x y z        total         alpha         beta         nuclear
     -   - - -        -----         -----         ----         -------
     0   0 0 0     -0.000000     -1.000000     -1.000000      2.000000

     1   1 0 0      0.000000      0.000000      0.000000      0.000000
     1   0 1 0      0.000000      0.000000      0.000000      0.000000
     1   0 0 1     -0.000000     -0.000000     -0.000000      0.000000

     2   2 0 0     -1.544708     -0.772354     -0.772354      0.000000
     2   1 1 0      0.000000      0.000000      0.000000      0.000000
     2   1 0 1      0.000000      0.000000      0.000000      0.000000
     2   0 2 0     -1.544708     -0.772354     -0.772354      0.000000
     2   0 1 1      0.000000      0.000000      0.000000      0.000000
     2   0 0 2     -1.228865     -1.117107     -1.117107      1.005349


 Parallel integral file used       1 records with       0 large values



                            NWChem DFT Gradient Module
                            --------------------------


                                  H2 dft optimize



  charge          =   0.00
  wavefunction    = closed shell

  Using symmetry


                         DFT ENERGY GRADIENTS

    atom               coordinates                        gradient
                 x          y          z           x          y          z
   1 H       0.000000   0.000000  -0.708995    0.000000   0.000000   0.000021
   2 H       0.000000   0.000000   0.708995    0.000000   0.000000  -0.000021

                 ----------------------------------------
                 |  Time  |  1-e(secs)   |  2-e(secs)   |
                 ----------------------------------------
                 |  CPU   |       0.00   |       0.00   |
                 ----------------------------------------
                 |  WALL  |       0.00   |       0.00   |
                 ----------------------------------------

  Step       Energy      Delta E   Gmax     Grms     Xrms     Xmax   Walltime
  ---- ---------------- -------- -------- -------- -------- -------- --------
@    1      -1.16315666 -5.2D-05  0.00002  0.00002  0.00489  0.00847      0.5
                                     ok       ok                    



                                Z-matrix (autoz)
                                -------- 

 Units are Angstrom for bonds and degrees for angles

      Type          Name      I     J     K     L     M      Value     Gradient
      ----------- --------  ----- ----- ----- ----- ----- ---------- ----------
    1 Stretch                  1     2                       0.75037   -0.00002


                                 NWChem DFT Module
                                 -----------------


                                  H2 dft optimize


  Caching 1-el integrals 

            General Information
            -------------------
          SCF calculation type: DFT
          Wavefunction type:  closed shell.
          No. of atoms     :     2
          No. of electrons :     2
           Alpha electrons :     1
            Beta electrons :     1
          Charge           :     0
          Spin multiplicity:     1
          Use of symmetry is: on ; symmetry adaption is: on 
          Maximum number of iterations:  30
          AO basis - number of functions:     6
                     number of shells:     6
          Convergence on energy requested: 1.00D-06
          Convergence on density requested: 1.00D-05
          Convergence on gradient requested: 5.00D-04

              XC Information
              --------------
          PerdewBurkeErnzerhof Exchange Functional  1.000          
            Perdew 1991 LDA Correlation Functional  1.000 local    
           PerdewBurkeErnz. Correlation Functional  1.000 non-local

             Grid Information
             ----------------
          Grid used for XC integration:  medium    
          Radial quadrature: Mura-Knowles        
          Angular quadrature: Lebedev. 
          Tag              B.-S. Rad. Rad. Pts. Rad. Cut. Ang. Pts.
          ---              ---------- --------- --------- ---------
          H                   0.35       45           6.0       434
          Grid pruning is: on 
          Number of quadrature shells:    45
          Spatial weights used:  Erf1

          Convergence Information
          -----------------------
          Convergence aids based upon iterative change in 
          total energy or number of iterations. 
          Levelshifting, if invoked, occurs when the 
          HOMO/LUMO gap drops below (HL_TOL): 1.00D-02
          DIIS, if invoked, will attempt to extrapolate 
          using up to (NFOCK): 10 stored Fock matrices.

                    Damping( 0%)  Levelshifting(0.5)       DIIS
                  --------------- ------------------- ---------------
          dE  on:    start            ASAP                start   
          dE off:    2 iters         30 iters            30 iters 


      Screening Tolerance Information
      -------------------------------
          Density screening/tol_rho: 1.00D-10
          AO Gaussian exp screening on grid/accAOfunc:  14
          CD Gaussian exp screening on grid/accCDfunc:  20
          XC Gaussian exp screening on grid/accXCfunc:  20
          Schwarz screening/accCoul: 1.00D-08


 Loading old vectors from job with title :

H2 dft optimize


      Symmetry analysis of molecular orbitals - initial
      -------------------------------------------------

  Numbering of irreducible representations: 

     1 a1g         2 a1u         3 a2g         4 a2u         5 b1g     
     6 b1u         7 b2g         8 b2u         9 eg         10 eu      

  Orbital symmetries:

     1 a1g         2 a2u         3 a1g         4 a2u         5 a1g     
     6 a2u     

   Time after variat. SCF:      0.3
   Time prior to 1st pass:      0.3

 #quartets = 1.560D+02 #integrals = 1.560D+02 #direct =  0.0% #cached =100.0%


 Integral file          = ./H2.aoints.0
 Record size in doubles =  65536        No. of integs per rec  =  43688
 Max. records in memory =      2        Max. records in file   = 184915
 No. of bits per label  =      8        No. of bits per value  =     64


 Grid_pts file          = ./H2.gridpts.0
 Record size in doubles =  12289        No. of grid_pts per rec  =   3070
 Max. records in memory =      8        Max. recs in file   =    986136


           Memory utilization after 1st SCF pass: 
           Heap Space remaining (MW):       32.54            32537841
          Stack Space remaining (MW):       32.77            32767855

   convergence    iter        energy       DeltaE   RMS-Dens  Diis-err    time
 ---------------- ----- ----------------- --------- --------- ---------  ------
 d= 0,ls=0.0,diis     1     -1.1631566609 -1.87D+00  2.63D-06  1.20D-09     0.4
 d= 0,ls=0.0,diis     2     -1.1631566610 -1.42D-10  9.43D-07  3.94D-11     0.4


         Total DFT energy =       -1.163156661047
      One electron energy =       -2.481233595994
           Coulomb energy =        1.297639458168
    Exchange-Corr. energy =       -0.684756726683
 Nuclear repulsion energy =        0.705194203461

 Numeric. integr. density =        1.999999954313

     Total iterative time =      0.0s



                  Occupations of the irreducible representations
                  ----------------------------------------------

                     irrep           alpha         beta
                     --------     --------     --------
                     a1g               1.0          1.0
                     a1u               0.0          0.0
                     a2g               0.0          0.0
                     a2u               0.0          0.0
                     b1g               0.0          0.0
                     b1u               0.0          0.0
                     b2g               0.0          0.0
                     b2u               0.0          0.0
                     eg                0.0          0.0
                     eu                0.0          0.0


                       DFT Final Molecular Orbital Analysis
                       ------------------------------------

 Vector    1  Occ=2.000000D+00  E=-3.824927D-01  Symmetry=a1g
              MO Center=  0.0D+00,  0.0D+00,  1.0D-16, r^2= 7.5D-01
   Bfn.  Coefficient  Atom+Function         Bfn.  Coefficient  Atom+Function  
  ----- ------------  ---------------      ----- ------------  ---------------
     2      0.280551  1 H  s                  5      0.280551  2 H  s          
     1      0.201183  1 H  s                  4      0.201183  2 H  s          

 Vector    2  Occ=0.000000D+00  E= 4.180239D-02  Symmetry=a2u
              MO Center=  0.0D+00,  0.0D+00,  0.0D+00, r^2= 2.8D+00
   Bfn.  Coefficient  Atom+Function         Bfn.  Coefficient  Atom+Function  
  ----- ------------  ---------------      ----- ------------  ---------------
     3      1.898183  1 H  s                  6     -1.898183  2 H  s          
     2      0.202175  1 H  s                  5     -0.202175  2 H  s          

 Vector    3  Occ=0.000000D+00  E= 1.827689D-01  Symmetry=a1g
              MO Center=  0.0D+00,  0.0D+00,  1.1D-16, r^2= 3.2D+00
   Bfn.  Coefficient  Atom+Function         Bfn.  Coefficient  Atom+Function  
  ----- ------------  ---------------      ----- ------------  ---------------
     3      0.833651  1 H  s                  6      0.833651  2 H  s          
     2     -0.680199  1 H  s                  5     -0.680199  2 H  s          

 Vector    4  Occ=0.000000D+00  E= 4.402502D-01  Symmetry=a2u
              MO Center=  0.0D+00,  0.0D+00, -3.9D-16, r^2= 2.7D+00
   Bfn.  Coefficient  Atom+Function         Bfn.  Coefficient  Atom+Function  
  ----- ------------  ---------------      ----- ------------  ---------------
     3      2.429817  1 H  s                  6     -2.429817  2 H  s          
     2     -1.614405  1 H  s                  5      1.614405  2 H  s          

 Vector    5  Occ=0.000000D+00  E= 2.067285D+00  Symmetry=a1g
              MO Center=  0.0D+00,  0.0D+00,  3.8D-16, r^2= 1.2D+00
   Bfn.  Coefficient  Atom+Function         Bfn.  Coefficient  Atom+Function  
  ----- ------------  ---------------      ----- ------------  ---------------
     2      1.244027  1 H  s                  5      1.244027  2 H  s          
     1     -1.084214  1 H  s                  4     -1.084214  2 H  s          
     3     -0.510708  1 H  s                  6     -0.510708  2 H  s          

 Vector    6  Occ=0.000000D+00  E= 2.317054D+00  Symmetry=a2u
              MO Center=  0.0D+00,  0.0D+00, -4.9D-16, r^2= 1.0D+00
   Bfn.  Coefficient  Atom+Function         Bfn.  Coefficient  Atom+Function  
  ----- ------------  ---------------      ----- ------------  ---------------
     2      1.867904  1 H  s                  5     -1.867904  2 H  s          
     3     -1.286138  1 H  s                  6      1.286138  2 H  s          
     1     -1.119332  1 H  s                  4      1.119332  2 H  s          


 center of mass
 --------------
 x =   0.00000000 y =   0.00000000 z =   0.00000000

 moments of inertia (a.u.)
 ------------------
           1.013299116237           0.000000000000           0.000000000000
           0.000000000000           1.013299116237           0.000000000000
           0.000000000000           0.000000000000           0.000000000000

     Multipole analysis of the density
     ---------------------------------

     L   x y z        total         alpha         beta         nuclear
     -   - - -        -----         -----         ----         -------
     0   0 0 0     -0.000000     -1.000000     -1.000000      2.000000

     1   1 0 0      0.000000      0.000000      0.000000      0.000000
     1   0 1 0      0.000000      0.000000      0.000000      0.000000
     1   0 0 1     -0.000000     -0.000000     -0.000000      0.000000

     2   2 0 0     -1.544737     -0.772369     -0.772369      0.000000
     2   1 1 0      0.000000      0.000000      0.000000      0.000000
     2   1 0 1      0.000000      0.000000      0.000000      0.000000
     2   0 2 0     -1.544737     -0.772369     -0.772369      0.000000
     2   0 1 1      0.000000      0.000000      0.000000      0.000000
     2   0 0 2     -1.228871     -1.117152     -1.117152      1.005432


 Parallel integral file used       1 records with       0 large values

 Line search: 
     step= 1.00 grad=-1.2D-09 hess=-7.0D-10 energy=     -1.163157 mode=accept  
 new step= 1.00                   predicted energy=     -1.163157

          --------
          Step   2
          --------


                         Geometry "geometry" -> "geometry"
                         ---------------------------------

 Output coordinates in angstroms (scale by  1.889725989 to convert to a.u.)

  No.       Tag          Charge          X              Y              Z
 ---- ---------------- ---------- -------------- -------------- --------------
    1 H                    1.0000     0.00000000     0.00000000    -0.37519966
    2 H                    1.0000     0.00000000     0.00000000     0.37519966

      Atomic Mass 
      ----------- 

      H                  1.007825


 Effective nuclear repulsion energy (a.u.)       0.7051942035

            Nuclear Dipole moment (a.u.) 
            ----------------------------
        X                 Y               Z
 ---------------- ---------------- ----------------
     0.0000000000     0.0000000000     0.0000000000

      Symmetry information
      --------------------

 Group name             D4h       
 Group number             28
 Group order              16
 No. of unique centers     1

      Symmetry unique atoms

     1


                                 NWChem DFT Module
                                 -----------------


                                  H2 dft optimize



  The DFT is already converged 

         Total DFT energy =     -1.163156661047



                            NWChem DFT Gradient Module
                            --------------------------


                                  H2 dft optimize



  charge          =   0.00
  wavefunction    = closed shell

  Using symmetry


                         DFT ENERGY GRADIENTS

    atom               coordinates                        gradient
                 x          y          z           x          y          z
   1 H       0.000000   0.000000  -0.709025    0.000000   0.000000   0.000001
   2 H       0.000000   0.000000   0.709025    0.000000   0.000000  -0.000001

                 ----------------------------------------
                 |  Time  |  1-e(secs)   |  2-e(secs)   |
                 ----------------------------------------
                 |  CPU   |       0.00   |       0.00   |
                 ----------------------------------------
                 |  WALL  |       0.00   |       0.00   |
                 ----------------------------------------

  Step       Energy      Delta E   Gmax     Grms     Xrms     Xmax   Walltime
  ---- ---------------- -------- -------- -------- -------- -------- --------
@    2      -1.16315666 -1.9D-09  0.00000  0.00000  0.00002  0.00003      0.6
                                     ok       ok       ok       ok  



                                Z-matrix (autoz)
                                -------- 

 Units are Angstrom for bonds and degrees for angles

      Type          Name      I     J     K     L     M      Value     Gradient
      ----------- --------  ----- ----- ----- ----- ----- ---------- ----------
    1 Stretch                  1     2                       0.75040   -0.00000


      ----------------------
      Optimization converged
      ----------------------


  Step       Energy      Delta E   Gmax     Grms     Xrms     Xmax   Walltime
  ---- ---------------- -------- -------- -------- -------- -------- --------
@    2      -1.16315666 -1.9D-09  0.00000  0.00000  0.00002  0.00003      0.6
                                     ok       ok       ok       ok  



                                Z-matrix (autoz)
                                -------- 

 Units are Angstrom for bonds and degrees for angles

      Type          Name      I     J     K     L     M      Value     Gradient
      ----------- --------  ----- ----- ----- ----- ----- ---------- ----------
    1 Stretch                  1     2                       0.75040   -0.00000



                         Geometry "geometry" -> "geometry"
                         ---------------------------------

 Output coordinates in angstroms (scale by  1.889725989 to convert to a.u.)

  No.       Tag          Charge          X              Y              Z
 ---- ---------------- ---------- -------------- -------------- --------------
    1 H                    1.0000     0.00000000     0.00000000    -0.37519966
    2 H                    1.0000     0.00000000     0.00000000     0.37519966

      Atomic Mass 
      ----------- 

      H                  1.007825


 Effective nuclear repulsion energy (a.u.)       0.7051942035

            Nuclear Dipole moment (a.u.) 
            ----------------------------
        X                 Y               Z
 ---------------- ---------------- ----------------
     0.0000000000     0.0000000000     0.0000000000

      Symmetry information
      --------------------

 Group name             D4h       
 Group number             28
 Group order              16
 No. of unique centers     1

      Symmetry unique atoms

     1


                Final and change from initial internal coordinates
                --------------------------------------------------



                                Z-matrix (autoz)
                                -------- 

 Units are Angstrom for bonds and degrees for angles

      Type          Name      I     J     K     L     M      Value       Change
      ----------- --------  ----- ----- ----- ----- ----- ---------- ----------
    1 Stretch                  1     2                       0.75040    0.00900


 Task  times  cpu:        0.4s     wall:        0.6s


                                NWChem Input Module
                                -------------------


                                    H2 dft freq
                                    -----------
  library name resolved from: environment
  library file name is: </Users/chenzheng/Google Drive/nano266/resources/nwchem_basis/>
  
                      Basis "ao basis" -> "" (cartesian)
                      -----
  H (Hydrogen)
  ------------
            Exponent  Coefficients 
       -------------- ---------------------------------------------------------
  1 S  3.38650000E+01  0.025494
  1 S  5.09479000E+00  0.190373
  1 S  1.15879000E+00  0.852161

  2 S  3.25840000E-01  1.000000

  3 S  1.02741000E-01  1.000000



 Summary of "ao basis" -> "" (cartesian)
 ------------------------------------------------------------------------------
       Tag                 Description            Shells   Functions and Types
 ---------------- ------------------------------  ------  ---------------------
 H                          6-311+G*                 3        3   3s


  pbe96 is a nonlocal functional; adding pw91lda local functional. 


                   NWChem Nuclear Hessian and Frequency Analysis
                   ---------------------------------------------



                              NWChem Analytic Hessian
                              -----------------------

  itol2e modified to match energy
  convergence criterion.

                                 NWChem DFT Module
                                 -----------------


                                    H2 dft freq


  Caching 1-el integrals 
  itol2e modified to match energy
  convergence criterion.

            General Information
            -------------------
          SCF calculation type: DFT
          Wavefunction type:  closed shell.
          No. of atoms     :     2
          No. of electrons :     2
           Alpha electrons :     1
            Beta electrons :     1
          Charge           :     0
          Spin multiplicity:     1
          Use of symmetry is: off; symmetry adaption is: off
          Maximum number of iterations:  30
          AO basis - number of functions:     6
                     number of shells:     6
          Convergence on energy requested: 1.00D-07
          Convergence on density requested: 1.00D-05
          Convergence on gradient requested: 1.00D-06

              XC Information
              --------------
          PerdewBurkeErnzerhof Exchange Functional  1.000          
            Perdew 1991 LDA Correlation Functional  1.000 local    
           PerdewBurkeErnz. Correlation Functional  1.000 non-local

             Grid Information
             ----------------
          Grid used for XC integration:  fine      
          Radial quadrature: Mura-Knowles        
          Angular quadrature: Lebedev. 
          Tag              B.-S. Rad. Rad. Pts. Rad. Cut. Ang. Pts.
          ---              ---------- --------- --------- ---------
          H                   0.35       60           6.0       590
          Grid pruning is: on 
          Number of quadrature shells:   120
          Spatial weights used:  Erf1

          Convergence Information
          -----------------------
          Convergence aids based upon iterative change in 
          total energy or number of iterations. 
          Levelshifting, if invoked, occurs when the 
          HOMO/LUMO gap drops below (HL_TOL): 1.00D-02
          DIIS, if invoked, will attempt to extrapolate 
          using up to (NFOCK): 10 stored Fock matrices.

                    Damping( 0%)  Levelshifting(0.5)       DIIS
                  --------------- ------------------- ---------------
          dE  on:    start            ASAP                start   
          dE off:    2 iters         30 iters            30 iters 


      Screening Tolerance Information
      -------------------------------
          Density screening/tol_rho: 1.00D-11
          AO Gaussian exp screening on grid/accAOfunc:  16
          CD Gaussian exp screening on grid/accCDfunc:  20
          XC Gaussian exp screening on grid/accXCfunc:  20
          Schwarz screening/accCoul: 1.00D-08


 Loading old vectors from job with title :

H2 dft optimize

   Time after variat. SCF:      0.4
   Time prior to 1st pass:      0.4

 #quartets = 2.310D+02 #integrals = 2.310D+02 #direct =  0.0% #cached =100.0%


 Integral file          = ./H2.aoints.0
 Record size in doubles =  65536        No. of integs per rec  =  43688
 Max. records in memory =      2        Max. records in file   = 184915
 No. of bits per label  =      8        No. of bits per value  =     64


 Grid_pts file          = ./H2.gridpts.0
 Record size in doubles =  12289        No. of grid_pts per rec  =   3070
 Max. records in memory =     27        Max. recs in file   =    986136


           Memory utilization after 1st SCF pass: 
           Heap Space remaining (MW):       32.30            32304346
          Stack Space remaining (MW):       32.77            32767855

   convergence    iter        energy       DeltaE   RMS-Dens  Diis-err    time
 ---------------- ----- ----------------- --------- --------- ---------  ------
 d= 0,ls=0.0,diis     1     -1.1631566449 -1.87D+00  1.36D-07  8.78D-13     0.5
 d= 0,ls=0.0,diis     2     -1.1631566449 -1.52D-13  3.35D-08  7.13D-14     0.6


         Total DFT energy =       -1.163156644927
      One electron energy =       -2.481235043634
           Coulomb energy =        1.297642386755
    Exchange-Corr. energy =       -0.684758191509
 Nuclear repulsion energy =        0.705194203461

 Numeric. integr. density =        2.000000005876

     Total iterative time =      0.2s



                       DFT Final Molecular Orbital Analysis
                       ------------------------------------

 Vector    1  Occ=2.000000D+00  E=-3.824921D-01
              MO Center=  0.0D+00,  0.0D+00, -4.5D-10, r^2= 7.5D-01
   Bfn.  Coefficient  Atom+Function         Bfn.  Coefficient  Atom+Function  
  ----- ------------  ---------------      ----- ------------  ---------------
     2      0.280551  1 H  s                  5      0.280551  2 H  s          
     1      0.201183  1 H  s                  4      0.201183  2 H  s          

 Vector    2  Occ=0.000000D+00  E= 4.180268D-02
              MO Center=  0.0D+00,  0.0D+00, -7.5D-09, r^2= 2.8D+00
   Bfn.  Coefficient  Atom+Function         Bfn.  Coefficient  Atom+Function  
  ----- ------------  ---------------      ----- ------------  ---------------
     3      1.898184  1 H  s                  6     -1.898184  2 H  s          
     2      0.202174  1 H  s                  5     -0.202174  2 H  s          

 Vector    3  Occ=0.000000D+00  E= 1.827691D-01
              MO Center=  0.0D+00,  0.0D+00,  4.4D-09, r^2= 3.2D+00
   Bfn.  Coefficient  Atom+Function         Bfn.  Coefficient  Atom+Function  
  ----- ------------  ---------------      ----- ------------  ---------------
     3      0.833651  1 H  s                  6      0.833651  2 H  s          
     2     -0.680199  1 H  s                  5     -0.680199  2 H  s          

 Vector    4  Occ=0.000000D+00  E= 4.402505D-01
              MO Center=  0.0D+00,  0.0D+00,  2.9D-09, r^2= 2.7D+00
   Bfn.  Coefficient  Atom+Function         Bfn.  Coefficient  Atom+Function  
  ----- ------------  ---------------      ----- ------------  ---------------
     3      2.429817  1 H  s                  6     -2.429817  2 H  s          
     2     -1.614406  1 H  s                  5      1.614406  2 H  s          

 Vector    5  Occ=0.000000D+00  E= 2.067286D+00
              MO Center=  0.0D+00,  0.0D+00, -3.6D-09, r^2= 1.2D+00
   Bfn.  Coefficient  Atom+Function         Bfn.  Coefficient  Atom+Function  
  ----- ------------  ---------------      ----- ------------  ---------------
     2      1.244027  1 H  s                  5      1.244027  2 H  s          
     1     -1.084214  1 H  s                  4     -1.084214  2 H  s          
     3     -0.510708  1 H  s                  6     -0.510708  2 H  s          

 Vector    6  Occ=0.000000D+00  E= 2.317055D+00
              MO Center=  0.0D+00,  0.0D+00,  4.3D-09, r^2= 1.0D+00
   Bfn.  Coefficient  Atom+Function         Bfn.  Coefficient  Atom+Function  
  ----- ------------  ---------------      ----- ------------  ---------------
     2      1.867904  1 H  s                  5     -1.867904  2 H  s          
     3     -1.286137  1 H  s                  6      1.286137  2 H  s          
     1     -1.119332  1 H  s                  4      1.119332  2 H  s          


 center of mass
 --------------
 x =   0.00000000 y =   0.00000000 z =   0.00000000

 moments of inertia (a.u.)
 ------------------
           1.013299116237           0.000000000000           0.000000000000
           0.000000000000           1.013299116237           0.000000000000
           0.000000000000           0.000000000000           0.000000000000

     Multipole analysis of the density
     ---------------------------------

     L   x y z        total         alpha         beta         nuclear
     -   - - -        -----         -----         ----         -------
     0   0 0 0     -0.000000     -1.000000     -1.000000      2.000000

     1   1 0 0      0.000000      0.000000      0.000000      0.000000
     1   0 1 0      0.000000      0.000000      0.000000      0.000000
     1   0 0 1      0.000000      0.000000      0.000000      0.000000

     2   2 0 0     -1.544739     -0.772369     -0.772369      0.000000
     2   1 1 0      0.000000      0.000000      0.000000      0.000000
     2   1 0 1      0.000000      0.000000      0.000000      0.000000
     2   0 2 0     -1.544739     -0.772369     -0.772369      0.000000
     2   0 1 1      0.000000      0.000000      0.000000      0.000000
     2   0 0 2     -1.228873     -1.117152     -1.117152      1.005432


 Parallel integral file used       1 records with       0 large values


 HESSIAN: the one electron contributions are done in       0.0s


 HESSIAN: 2-el 1st deriv. term done in                     0.0s


 HESSIAN: 2-el 2nd deriv. term done in                     0.0s

  stpr_wrt_fd_from_sq: overwrite of existing file:./H2.hess
 stpr_wrt_fd_dipole: overwrite of existing file./H2.fd_ddipole

 HESSIAN: the two electron contributions are done in       0.3s

                                NWChem CPHF Module
                                ------------------


  scftype          =     RHF 
  nclosed          =        1
  nopen            =        0
  variables        =        5
  # of vectors     =        6
  tolerance        = 0.10D-03
  level shift      = 0.00D+00
  max iterations   =       50
  max subspace     =       60


 #quartets = 2.310D+02 #integrals = 2.310D+02 #direct =  0.0% #cached =100.0%


 Integral file          = ./H2.aoints.0
 Record size in doubles =  65536        No. of integs per rec  =  43688
 Max. records in memory =      2        Max. records in file   = 184911
 No. of bits per label  =      8        No. of bits per value  =     64

 SCF residual:    5.5499441708855855E-009


Iterative solution of linear equations
  No. of variables        5
  No. of equations        6
  Maximum subspace       60
        Iterations       50
       Convergence  1.0D-04
        Start time      1.3


   iter   nsub   residual    time
   ----  ------  --------  ---------
     1      6    1.26D-01       1.4
     2     12    2.69D-03       1.5
     3     18    1.26D-09       1.7

 Parallel integral file used       1 records with       0 large values

 HESSIAN: the CPHF contributions are done
  stpr_wrt_fd_from_sq: overwrite of existing file:./H2.hess
 stpr_wrt_fd_dipole: overwrite of existing file./H2.fd_ddipole
 HESSIAN: the Hessian is done


  Vibrational analysis via the FX method 

  See chapter 2 in "Molecular Vibrations" by Wilson, Decius and Cross

  Vib: Default input used 

  Nuclear Hessian passed symmetry test 



 ---------------------------- Atom information ----------------------------
     atom    #        X              Y              Z            mass
 --------------------------------------------------------------------------
    H        1  0.0000000D+00  0.0000000D+00 -7.0902455D-01  1.0078250D+00
    H        2  0.0000000D+00  0.0000000D+00  7.0902455D-01  1.0078250D+00
 --------------------------------------------------------------------------




          ----------------------------------------------------
          MASS-WEIGHTED NUCLEAR HESSIAN (Hartree/Bohr/Bohr/Kamu)
          ----------------------------------------------------


              1           2           3           4           5           6
   ----- ----- ----- ----- -----
    1   2.99839D-03
    2  -3.69883D-08 2.99840D-03
    3  -3.12656D-08 3.39576D-08 3.47349D+02
    4  -3.00033D-03-1.39469D-07 3.09584D-08 3.00232D-03
    5  -1.39469D-07-3.00030D-03-3.54030D-08-2.91748D-06 3.00296D-03
    6  -1.20327D-07 1.37202D-07-3.47349D+02-2.93682D-06 3.39782D-06 3.47349D+02



          -------------------------------------------------
          NORMAL MODE EIGENVECTORS IN CARTESIAN COORDINATES
          -------------------------------------------------
                 (Frequencies expressed in cm-1)

                    1           2           3           4           5           6
 
 Frequency         -0.19        0.20        0.75       12.59       12.59     4284.52
 
           1    -0.52368     0.46813     0.05532     0.52467    -0.46959    -0.00000
           2    -0.47116    -0.52006    -0.06360     0.46981     0.52442     0.00000
           3     0.00142     0.08398    -0.69933    -0.00000    -0.00025    -0.70436
           4    -0.52356     0.46761     0.05493    -0.52479     0.47015    -0.00000
           5    -0.47105    -0.51948    -0.06315    -0.46992    -0.52504     0.00000
           6     0.00142     0.08398    -0.69933    -0.00000    -0.00025     0.70436



 ----------------------------------------------------------------------------
 Normal Eigenvalue ||         Derivative Dipole Moments (debye/angs)
  Mode   [cm**-1]  ||      [d/dqX]             [d/dqY]           [d/dqZ]
 ------ ---------- || ------------------ ------------------ -----------------
    1       -0.194 ||       0.000               0.000            -0.000
    2        0.202 ||      -0.000               0.000            -0.000
    3        0.750 ||       0.000              -0.000            -0.000
    4       12.591 ||       0.000               0.000             0.000
    5       12.594 ||      -0.000               0.000             0.000
    6     4284.520 ||      -0.000               0.000             0.000
 ----------------------------------------------------------------------------



  
  
 ----------------------------------------------------------------------------
 Normal Eigenvalue ||                 Infra Red Intensities
  Mode   [cm**-1]  || [atomic units] [(debye/angs)**2] [(KM/mol)] [arbitrary]
 ------ ---------- || -------------- ----------------- ---------- -----------
    1       -0.194 ||    0.000000           0.000         0.000       0.005
    2        0.202 ||    0.000000           0.000         0.000      20.021
    3        0.750 ||    0.000000           0.000         0.000       0.201
    4       12.591 ||    0.000000           0.000         0.000       0.559
    5       12.594 ||    0.000000           0.000         0.000      23.560
    6     4284.520 ||    0.000000           0.000         0.000      15.654
 ----------------------------------------------------------------------------





        Vibrational analysis via the FX method 
  --- with translations and rotations projected out ---
  --- via the Eckart algorithm                      ---
 Dependent rotation vector no.                    3
  found in ECKART; assuming linear geometry
 Projected Nuclear Hessian trans-rot subspace norm:1.7122D-51
                         (should be close to zero!) 


From the projected analysis 
The Zero-Point Energy (Kcal/mol) =           6.12686335

 center of mass
 --------------
 x =   0.00000000 y =   0.00000000 z =   0.00000000

 moments of inertia (a.u.)
 ------------------
           1.013299116237           0.000000000000           0.000000000000
           0.000000000000           1.013299116237           0.000000000000
           0.000000000000           0.000000000000           0.000000000000

 Rotational Constants
 --------------------
 A=   0.000000 cm-1  (  0.000000 K)
 B=  59.410074 cm-1  ( 85.475934 K)
 C=  59.410074 cm-1  ( 85.475934 K)


 Temperature                      =   298.15K
 frequency scaling parameter      =   1.0000


 Linear Molecule                   

 Zero-Point correction to Energy  =    6.122 kcal/mol  (  0.009756 au)
 Thermal correction to Energy     =    7.603 kcal/mol  (  0.012116 au)
 Thermal correction to Enthalpy   =    8.195 kcal/mol  (  0.013059 au)

 Total Entropy                    =   31.159 cal/mol-K
   - Translational                =   28.068 cal/mol-K (mol. weight =   2.0156)
   - Rotational                   =    3.091 cal/mol-K (symmetry #  =        2)
   - Vibrational                  =    0.000 cal/mol-K

 Cv (constant volume heat capacity) =    4.966 cal/mol-K
   - Translational                  =    2.979 cal/mol-K
   - Rotational                     =    1.986 cal/mol-K
   - Vibrational                    =    0.000 cal/mol-K



          -------------------------------------------------
          NORMAL MODE EIGENVECTORS IN CARTESIAN COORDINATES
          -------------------------------------------------
             (Projected Frequencies expressed in cm-1)

                    1           2           3           4           5           6
 
 P.Frequency        0.00        0.00        0.00        0.00        0.00     4284.52
 
           1     0.99611     0.00000     0.00000     0.00000     0.00000     0.00000
           2     0.00000     0.99611     0.00000     0.00000     0.00000     0.00000
           3     0.00000     0.00000     0.00000     0.00000     0.70436    -0.70436
           4     0.00000     0.00000     0.99611     0.00000     0.00000     0.00000
           5     0.00000     0.00000     0.00000     0.99611     0.00000     0.00000
           6     0.00000     0.00000     0.00000     0.00000     0.70436     0.70436



 ----------------------------------------------------------------------------
 Normal Eigenvalue ||    Projected Derivative Dipole Moments (debye/angs)
  Mode   [cm**-1]  ||      [d/dqX]             [d/dqY]           [d/dqZ]
 ------ ---------- || ------------------ ------------------ -----------------
    1        0.000 ||      -0.000               0.000             0.000
    2        0.000 ||       0.000              -0.000            -0.000
    3        0.000 ||       0.000               0.000            -0.000
    4        0.000 ||       0.000               0.000             0.000
    5        0.000 ||       0.000               0.000            -0.000
    6     4284.520 ||       0.000               0.000             0.000
 ----------------------------------------------------------------------------



  
  
 ----------------------------------------------------------------------------
 Normal Eigenvalue ||           Projected Infra Red Intensities
  Mode   [cm**-1]  || [atomic units] [(debye/angs)**2] [(KM/mol)] [arbitrary]
 ------ ---------- || -------------- ----------------- ---------- -----------
    1        0.000 ||    0.000000           0.000         0.000       0.314
    2        0.000 ||    0.000000           0.000         0.000       0.323
    3        0.000 ||    0.000000           0.000         0.000      18.535
    4        0.000 ||    0.000000           0.000         0.000      24.219
    5        0.000 ||    0.000000           0.000         0.000       0.955
    6     4284.520 ||    0.000000           0.000         0.000      15.654
 ----------------------------------------------------------------------------



 vib:animation  F

 Task  times  cpu:        0.9s     wall:        1.0s


                                NWChem Input Module
                                -------------------


                                   H2 dft energy
                                   -------------
  library name resolved from: environment
  library file name is: </Users/chenzheng/Google Drive/nano266/resources/nwchem_basis/>
  
                      Basis "ao basis" -> "" (cartesian)
                      -----
  H (Hydrogen)
  ------------
            Exponent  Coefficients 
       -------------- ---------------------------------------------------------
  1 S  3.38650000E+01  0.025494
  1 S  5.09479000E+00  0.190373
  1 S  1.15879000E+00  0.852161

  2 S  3.25840000E-01  1.000000

  3 S  1.02741000E-01  1.000000



 Summary of "ao basis" -> "" (cartesian)
 ------------------------------------------------------------------------------
       Tag                 Description            Shells   Functions and Types
 ---------------- ------------------------------  ------  ---------------------
 H                          6-311+G*                 3        3   3s



                                 NWChem DFT Module
                                 -----------------


                                   H2 dft energy


  Caching 1-el integrals 
  itol2e modified to match energy
  convergence criterion.

            General Information
            -------------------
          SCF calculation type: DFT
          Wavefunction type:  closed shell.
          No. of atoms     :     2
          No. of electrons :     2
           Alpha electrons :     1
            Beta electrons :     1
          Charge           :     0
          Spin multiplicity:     1
          Use of symmetry is: on ; symmetry adaption is: on 
          Maximum number of iterations:  30
          AO basis - number of functions:     6
                     number of shells:     6
          Convergence on energy requested: 1.00D-07
          Convergence on density requested: 1.00D-05
          Convergence on gradient requested: 5.00D-04

              XC Information
              --------------
                         B3LYP Method XC Potential
                     Hartree-Fock (Exact) Exchange  0.200          
                        Slater Exchange Functional  0.800 local    
                    Becke 1988 Exchange Functional  0.720 non-local
              Lee-Yang-Parr Correlation Functional  0.810          
                  VWN I RPA Correlation Functional  0.190 local    

             Grid Information
             ----------------
          Grid used for XC integration:  fine      
          Radial quadrature: Mura-Knowles        
          Angular quadrature: Lebedev. 
          Tag              B.-S. Rad. Rad. Pts. Rad. Cut. Ang. Pts.
          ---              ---------- --------- --------- ---------
          H                   0.35       60           6.0       590
          Grid pruning is: on 
          Number of quadrature shells:    60
          Spatial weights used:  Erf1

          Convergence Information
          -----------------------
          Convergence aids based upon iterative change in 
          total energy or number of iterations. 
          Levelshifting, if invoked, occurs when the 
          HOMO/LUMO gap drops below (HL_TOL): 1.00D-02
          DIIS, if invoked, will attempt to extrapolate 
          using up to (NFOCK): 10 stored Fock matrices.

                    Damping( 0%)  Levelshifting(0.5)       DIIS
                  --------------- ------------------- ---------------
          dE  on:    start            ASAP                start   
          dE off:    2 iters         30 iters            30 iters 


      Screening Tolerance Information
      -------------------------------
          Density screening/tol_rho: 1.00D-11
          AO Gaussian exp screening on grid/accAOfunc:  16
          CD Gaussian exp screening on grid/accCDfunc:  20
          XC Gaussian exp screening on grid/accXCfunc:  20
          Schwarz screening/accCoul: 1.00D-08


 Loading old vectors from job with title :

H2 dft freq


      Symmetry analysis of molecular orbitals - initial
      -------------------------------------------------

  Numbering of irreducible representations: 

     1 a1g         2 a1u         3 a2g         4 a2u         5 b1g     
     6 b1u         7 b2g         8 b2u         9 eg         10 eu      

  Orbital symmetries:

     1 a1g         2 a2u         3 a1g         4 a2u         5 a1g     
     6 a2u     

   Time after variat. SCF:      1.3
   Time prior to 1st pass:      1.3

 #quartets = 1.560D+02 #integrals = 1.560D+02 #direct =  0.0% #cached =100.0%


 Integral file          = ./H2.aoints.0
 Record size in doubles =  65536        No. of integs per rec  =  43688
 Max. records in memory =      2        Max. records in file   = 184911
 No. of bits per label  =      8        No. of bits per value  =     64


 Grid_pts file          = ./H2.gridpts.0
 Record size in doubles =  12289        No. of grid_pts per rec  =   3070
 Max. records in memory =     14        Max. recs in file   =    986116


           Memory utilization after 1st SCF pass: 
           Heap Space remaining (MW):       32.46            32464103
          Stack Space remaining (MW):       32.77            32767855

   convergence    iter        energy       DeltaE   RMS-Dens  Diis-err    time
 ---------------- ----- ----------------- --------- --------- ---------  ------
 d= 0,ls=0.0,diis     1     -1.1765843767 -1.88D+00  2.07D-04  9.81D-06     1.4
 d= 0,ls=0.0,diis     2     -1.1765853428 -9.66D-07  4.00D-05  5.24D-08     1.4
 d= 0,ls=0.0,diis     3     -1.1765853584 -1.56D-08  3.02D-06  1.66D-09     1.5


         Total DFT energy =       -1.176585358360
      One electron energy =       -2.481445252690
           Coulomb energy =        1.298151245130
    Exchange-Corr. energy =       -0.698485554261
 Nuclear repulsion energy =        0.705194203461

 Numeric. integr. density =        2.000000004344

     Total iterative time =      0.1s



                  Occupations of the irreducible representations
                  ----------------------------------------------

                     irrep           alpha         beta
                     --------     --------     --------
                     a1g               1.0          1.0
                     a1u               0.0          0.0
                     a2g               0.0          0.0
                     a2u               0.0          0.0
                     b1g               0.0          0.0
                     b1u               0.0          0.0
                     b2g               0.0          0.0
                     b2u               0.0          0.0
                     eg                0.0          0.0
                     eu                0.0          0.0


                       DFT Final Molecular Orbital Analysis
                       ------------------------------------

 Vector    1  Occ=2.000000D+00  E=-4.352359D-01  Symmetry=a1g
              MO Center=  0.0D+00,  0.0D+00,  6.2D-17, r^2= 7.5D-01
   Bfn.  Coefficient  Atom+Function         Bfn.  Coefficient  Atom+Function  
  ----- ------------  ---------------      ----- ------------  ---------------
     2      0.280154  1 H  s                  5      0.280154  2 H  s          
     1      0.201653  1 H  s                  4      0.201653  2 H  s          

 Vector    2  Occ=0.000000D+00  E= 5.720273D-02  Symmetry=a2u
              MO Center=  0.0D+00,  0.0D+00,  6.7D-16, r^2= 3.0D+00
   Bfn.  Coefficient  Atom+Function         Bfn.  Coefficient  Atom+Function  
  ----- ------------  ---------------      ----- ------------  ---------------
     3      1.975972  1 H  s                  6     -1.975972  2 H  s          
     2      0.151219  1 H  s                  5     -0.151219  2 H  s          

 Vector    3  Occ=0.000000D+00  E= 1.967525D-01  Symmetry=a1g
              MO Center=  0.0D+00,  0.0D+00, -1.5D-15, r^2= 3.2D+00
   Bfn.  Coefficient  Atom+Function         Bfn.  Coefficient  Atom+Function  
  ----- ------------  ---------------      ----- ------------  ---------------
     3      0.835862  1 H  s                  6      0.835862  2 H  s          
     2     -0.685485  1 H  s                  5     -0.685485  2 H  s          

 Vector    4  Occ=0.000000D+00  E= 4.715299D-01  Symmetry=a2u
              MO Center=  0.0D+00,  0.0D+00, -4.4D-16, r^2= 2.6D+00
   Bfn.  Coefficient  Atom+Function         Bfn.  Coefficient  Atom+Function  
  ----- ------------  ---------------      ----- ------------  ---------------
     3      2.375938  1 H  s                  6     -2.375938  2 H  s          
     2     -1.635628  1 H  s                  5      1.635628  2 H  s          

 Vector    5  Occ=0.000000D+00  E= 2.118318D+00  Symmetry=a1g
              MO Center=  0.0D+00,  0.0D+00,  3.6D-16, r^2= 1.2D+00
   Bfn.  Coefficient  Atom+Function         Bfn.  Coefficient  Atom+Function  
  ----- ------------  ---------------      ----- ------------  ---------------
     2      1.241212  1 H  s                  5      1.241212  2 H  s          
     1     -1.084477  1 H  s                  4     -1.084477  2 H  s          
     3     -0.507065  1 H  s                  6     -0.507065  2 H  s          

 Vector    6  Occ=0.000000D+00  E= 2.375670D+00  Symmetry=a2u
              MO Center=  0.0D+00,  0.0D+00, -3.9D-16, r^2= 1.0D+00
   Bfn.  Coefficient  Atom+Function         Bfn.  Coefficient  Atom+Function  
  ----- ------------  ---------------      ----- ------------  ---------------
     2      1.854211  1 H  s                  5     -1.854211  2 H  s          
     3     -1.269533  1 H  s                  6      1.269533  2 H  s          
     1     -1.120555  1 H  s                  4      1.120555  2 H  s          


 center of mass
 --------------
 x =   0.00000000 y =   0.00000000 z =   0.00000000

 moments of inertia (a.u.)
 ------------------
           1.013299116237           0.000000000000           0.000000000000
           0.000000000000           1.013299116237           0.000000000000
           0.000000000000           0.000000000000           0.000000000000

     Multipole analysis of the density
     ---------------------------------

     L   x y z        total         alpha         beta         nuclear
     -   - - -        -----         -----         ----         -------
     0   0 0 0     -0.000000     -1.000000     -1.000000      2.000000

     1   1 0 0      0.000000      0.000000      0.000000      0.000000
     1   0 1 0      0.000000      0.000000      0.000000      0.000000
     1   0 0 1     -0.000000     -0.000000     -0.000000      0.000000

     2   2 0 0     -1.543837     -0.771919     -0.771919      0.000000
     2   1 1 0      0.000000      0.000000      0.000000      0.000000
     2   1 0 1      0.000000      0.000000      0.000000      0.000000
     2   0 2 0     -1.543837     -0.771919     -0.771919      0.000000
     2   0 1 1      0.000000      0.000000      0.000000      0.000000
     2   0 0 2     -1.228160     -1.116796     -1.116796      1.005432


 Parallel integral file used       1 records with       0 large values


 Task  times  cpu:        0.1s     wall:        0.2s
 Summary of allocated global arrays
-----------------------------------
  No active global arrays



                         GA Statistics for process    0
                         ------------------------------

       create   destroy   get      put      acc     scatter   gather  read&inc
calls: 1052     1052     1.87e+04 4135     9022      134        0     1368     
number of processes/call 1.00e+00 1.00e+00 1.00e+00 1.00e+00 0.00e+00
bytes total:             1.55e+06 3.24e+05 7.69e+05 3.26e+04 0.00e+00 1.09e+04
bytes remote:            0.00e+00 0.00e+00 0.00e+00 0.00e+00 0.00e+00 0.00e+00
Max memory consumed for GA by this process: 17568 bytes
MA_summarize_allocated_blocks: starting scan ...
MA_summarize_allocated_blocks: scan completed: 0 heap blocks, 0 stack blocks
MA usage statistics:

	allocation statistics:
					      heap	     stack
					      ----	     -----
	current number of blocks	         0	         0
	maximum number of blocks	        26	        52
	current total bytes		         0	         0
	maximum total bytes		   3708872	  63701008
	maximum total K-bytes		      3709	     63702
	maximum total M-bytes		         4	        64


                                NWChem Input Module
                                -------------------





                                     CITATION
                                     --------
                Please cite the following reference when publishing
                           results obtained with NWChem:

                 M. Valiev, E.J. Bylaska, N. Govind, K. Kowalski,
              T.P. Straatsma, H.J.J. van Dam, D. Wang, J. Nieplocha,
                        E. Apra, T.L. Windus, W.A. de Jong
                 "NWChem: a comprehensive and scalable open-source
                  solution for large scale molecular simulations"
                      Comput. Phys. Commun. 181, 1477 (2010)
                           doi:10.1016/j.cpc.2010.04.018

                              AUTHORS & CONTRIBUTORS
                              ----------------------
          E. Apra, E. J. Bylaska, W. A. de Jong, N. Govind, K. Kowalski,
       T. P. Straatsma, M. Valiev, H. J. J. van Dam, D. Wang, T. L. Windus,
        J. Hammond, J. Autschbach, K. Bhaskaran-Nair, J. Brabec, K. Lopata,
     F. Aquino, S. Hirata, M. T. Hackler, J. Mullin, P. Nichols, R. Peverati,
    J. Pittner, Y. Zhao, P.-D. Fan, R. J. Harrison, M. Dupuis, D. Silverstein,
    D. M. A. Smith, J. Nieplocha, V. Tipparaju, M. Krishnan, B. E. Van Kuiken,
        A. Vazquez-Mayagoitia, L. Jensen, M. Swart, Q. Wu, T. Van Voorhis,
     A. A. Auer, M. Nooijen, L. D. Crosby, E. Brown, G. Cisneros, G. I. Fann,
     H. Fruchtl, J. Garza, K. Hirao, R. Kendall, J. A. Nichols, K. Tsemekhman,
      K. Wolinski, J. Anchell, D. Bernholdt, P. Borowski, T. Clark, D. Clerc,
      H. Dachsel, M. Deegan, K. Dyall, D. Elwood, E. Glendening, M. Gutowski,
      A. Hess, J. Jaffe, B. Johnson, J. Ju, R. Kobayashi, R. Kutteh, Z. Lin,
   R. Littlefield, X. Long, B. Meng, T. Nakajima, S. Niu, L. Pollack, M. Rosing,
   K. Glaesemann, G. Sandrone, M. Stave, H. Taylor, G. Thomas, J. H. van Lenthe,
                                A. Wong, Z. Zhang.

 Total times  cpu:        1.5s     wall:        1.9s
