
     Program PWSCF v.5.1 starts on 28Apr2015 at 12:35: 5 

     This program is part of the open-source Quantum ESPRESSO suite
     for quantum simulation of materials; please cite
         "P. Giannozzi et al., J. Phys.:Condens. Matter 21 395502 (2009);
          URL http://www.quantum-espresso.org", 
     in publications or presentations arising from this work. More details at
     http://www.quantum-espresso.org/quote

     Parallel version (MPI), running on     1 processors
     Waiting for input...
     Reading input from standard input
Warning: card &IONS ignored
Warning: card / ignored
Warning: card &CELL ignored
Warning: card / ignored

     Current dimensions of program PWSCF are:
     Max number of different atomic species (ntypx) = 10
     Max number of k-points (npk) =  40000
     Max angular momentum in pseudopotentials (lmaxx) =  3
               file Si.pbe-n-kjpaw_psl.0.1.UPF: wavefunction(s)  3S renormalized

     Subspace diagonalization in iterative solution of the eigenvalue problem:
     a serial algorithm will be used

 
     G-vector sticks info
     --------------------
     sticks:   dense  smooth     PW     G-vecs:    dense   smooth      PW
     Sum         733     733    223                12939    12939    2229
 


     bravais-lattice index     =            2
     lattice parameter (alat)  =      10.2600  a.u.
     unit-cell volume          =     270.0114 (a.u.)^3
     number of atoms/cell      =            2
     number of atomic types    =            1
     number of electrons       =         8.00
     number of Kohn-Sham states=            4
     kinetic-energy cutoff     =      50.0000  Ry
     charge density cutoff     =     200.0000  Ry
     convergence threshold     =      1.0E-06
     mixing beta               =       0.7000
     number of iterations used =            8  plain     mixing
     Exchange-correlation      =  SLA  PW   PBX  PBC ( 1  4  3  4 0)

     celldm(1)=  10.260000  celldm(2)=   0.000000  celldm(3)=   0.000000
     celldm(4)=   0.000000  celldm(5)=   0.000000  celldm(6)=   0.000000

     crystal axes: (cart. coord. in units of alat)
               a(1) = (  -0.500000   0.000000   0.500000 )  
               a(2) = (   0.000000   0.500000   0.500000 )  
               a(3) = (  -0.500000   0.500000   0.000000 )  

     reciprocal axes: (cart. coord. in units 2 pi/alat)
               b(1) = ( -1.000000 -1.000000  1.000000 )  
               b(2) = (  1.000000  1.000000  1.000000 )  
               b(3) = ( -1.000000  1.000000 -1.000000 )  


     PseudoPot. # 1 for Si read from file:
     ./Si.pbe-n-kjpaw_psl.0.1.UPF
     MD5 check sum: b9d333a40e496bef61db012f150758bf
     Pseudo is Projector augmented-wave + core cor, Zval =  4.0
     Generated using "atomic" code by A. Dal Corso  v.5.0.2 svn rev. 9415
     Shape of augmentation charge: PSQ
     Using radial grid of 1141 points,  4 beta functions with: 
                l(1) =   0
                l(2) =   0
                l(3) =   1
                l(4) =   1
     Q(r) pseudized with 0 coefficients 


     atomic species   valence    mass     pseudopotential
        Si             4.00    28.05500     Si( 1.00)

      2 Sym. Ops. (no inversion) found
          (note:  2 additional sym.ops. were found but ignored
           their fractional translations are incommensurate with FFT grid)


   Cartesian axes

     site n.     atom                  positions (alat units)
         1           Si  tau(   1) = (  -0.0250000   0.0250000   0.0000000  )
         2           Si  tau(   2) = (  -0.2500000   0.2500000   0.2500000  )

     number of k points=   150

     Number of k-points >= 100: set verbosity='high' to print them.

     Dense  grid:    12939 G-vectors     FFT dimensions: (  36,  36,  36)

     Largest allocated arrays     est. size (Mb)     dimensions
        Kohn-Sham Wavefunctions         0.10 Mb     (    1639,    4)
        NL pseudopotentials             0.40 Mb     (    1639,   16)
        Each V/rho on FFT grid          0.71 Mb     (   46656)
        Each G-vector array             0.10 Mb     (   12939)
        G-vector shells                 0.00 Mb     (     180)
     Largest temporary arrays     est. size (Mb)     dimensions
        Auxiliary wavefunctions         0.40 Mb     (    1639,   16)
        Each subspace H/S matrix        0.00 Mb     (      16,   16)
        Each <psi_i|beta_j> matrix      0.00 Mb     (      16,    4)
        Arrays for rho mixing           5.70 Mb     (   46656,    8)

     Initial potential from superposition of free atoms

     starting charge    7.99888, renormalised to    8.00000
     Starting wfc are    8 randomized atomic wfcs
     Checking if some PAW data can be deallocated... 

     total cpu time spent up to now is        4.9 secs

     per-process dynamical memory:    26.4 Mb

     Self-consistent Calculation

     iteration #  1     ecut=    50.00 Ry     beta=0.70
     Davidson diagonalization with overlap
     ethr =  1.00E-02,  avg # of iterations =  2.0

     Threshold (ethr) on eigenvalues was too large:
     Diagonalizing with lowered threshold

     Davidson diagonalization with overlap
     ethr =  7.31E-04,  avg # of iterations =  1.0

     total cpu time spent up to now is       17.2 secs

     total energy              =     -93.43258822 Ry
     Harris-Foulkes estimate   =     -93.44719635 Ry
     estimated scf accuracy    <       0.05800547 Ry

     iteration #  2     ecut=    50.00 Ry     beta=0.70
     Davidson diagonalization with overlap
     ethr =  7.25E-04,  avg # of iterations =  1.0

     total cpu time spent up to now is       22.6 secs

     total energy              =     -93.43490972 Ry
     Harris-Foulkes estimate   =     -93.43504973 Ry
     estimated scf accuracy    <       0.00239985 Ry

     iteration #  3     ecut=    50.00 Ry     beta=0.70
     Davidson diagonalization with overlap
     ethr =  3.00E-05,  avg # of iterations =  2.4

     total cpu time spent up to now is       29.0 secs

     total energy              =     -93.43523657 Ry
     Harris-Foulkes estimate   =     -93.43525658 Ry
     estimated scf accuracy    <       0.00005939 Ry

     iteration #  4     ecut=    50.00 Ry     beta=0.70
     Davidson diagonalization with overlap
     ethr =  7.42E-07,  avg # of iterations =  2.8

     total cpu time spent up to now is       36.8 secs

     total energy              =     -93.43526304 Ry
     Harris-Foulkes estimate   =     -93.43526437 Ry
     estimated scf accuracy    <       0.00000340 Ry

     iteration #  5     ecut=    50.00 Ry     beta=0.70
     Davidson diagonalization with overlap
     ethr =  4.25E-08,  avg # of iterations =  2.6

     total cpu time spent up to now is       44.4 secs

     End of self-consistent calculation

     Number of k-points >= 100: set verbosity='high' to print the bands.

     highest occupied level (ev):     7.1663

!    total energy              =     -93.43526418 Ry
     Harris-Foulkes estimate   =     -93.43526429 Ry
     estimated scf accuracy    <       0.00000013 Ry

     total all-electron energy =     -1160.127000 Ry

     The total energy is the sum of the following terms:

     one-electron contribution =       5.72747117 Ry
     hartree contribution      =       1.10114891 Ry
     xc contribution           =     -12.25853195 Ry
     ewald contribution        =     -16.76815041 Ry
     one-center paw contrib.   =     -71.23720190 Ry

     convergence has been achieved in   5 iterations

     Forces acting on atoms (Ry/au):

     atom    1 type  1   force =     0.07193864   -0.07193864   -0.02586181
     atom    2 type  1   force =    -0.07193864    0.07193864    0.02586181

     Total force =     0.148453     Total SCF correction =     0.000069


     entering subroutine stress ...

          total   stress  (Ry/bohr**3)                   (kbar)     P=   32.05
   0.00018891  -0.00010633  -0.00037467         27.79    -15.64    -55.12
  -0.00010633   0.00018891   0.00037467        -15.64     27.79     55.12
  -0.00037467   0.00037467   0.00027586        -55.12     55.12     40.58


     Writing output data file pwscf.save
 
     init_run     :      4.59s CPU      4.62s WALL (       1 calls)
     electrons    :     39.21s CPU     39.50s WALL (       1 calls)
     forces       :      0.38s CPU      0.38s WALL (       1 calls)
     stress       :      1.51s CPU      1.52s WALL (       1 calls)

     Called by init_run:
     wfcinit      :      3.81s CPU      3.84s WALL (       1 calls)
     potinit      :      0.22s CPU      0.22s WALL (       1 calls)

     Called by electrons:
     c_bands      :     31.64s CPU     31.85s WALL (       6 calls)
     sum_band     :      6.38s CPU      6.42s WALL (       6 calls)
     v_of_rho     :      0.30s CPU      0.31s WALL (       6 calls)
     newd         :      0.13s CPU      0.13s WALL (       6 calls)
     mix_rho      :      0.02s CPU      0.02s WALL (       6 calls)

     Called by c_bands:
     init_us_2    :      1.31s CPU      1.31s WALL (    2250 calls)
     cegterg      :     29.48s CPU     29.65s WALL (     900 calls)

     Called by *egterg:
     h_psi        :     30.69s CPU     30.85s WALL (    2818 calls)
     s_psi        :      0.51s CPU      0.53s WALL (    2818 calls)
     g_psi        :      0.26s CPU      0.24s WALL (    1768 calls)
     cdiaghg      :      0.22s CPU      0.22s WALL (    2518 calls)

     Called by h_psi:
     add_vuspsi   :      0.50s CPU      0.53s WALL (    2818 calls)

     General routines
     calbec       :      0.81s CPU      0.81s WALL (    4018 calls)
     fft          :      0.20s CPU      0.21s WALL (     105 calls)
     fftw         :     31.40s CPU     31.51s WALL (   25150 calls)
     davcio       :      0.00s CPU      0.01s WALL (     150 calls)
 
     Parallel routines
     fft_scatter  :      2.13s CPU      2.18s WALL (   25255 calls)

     PAW routines
     PAW_pot      :      0.95s CPU      0.95s WALL (       6 calls)
     PAW_symme    :      0.00s CPU      0.00s WALL (      12 calls)
 
     PWSCF        :    46.39s CPU        48.83s WALL

 
   This run was terminated on:  12:35:54  28Apr2015            

=------------------------------------------------------------------------------=
   JOB DONE.
=------------------------------------------------------------------------------=
