
     Program PWSCF v.5.1 starts on 28Apr2015 at 12:36:58 

     This program is part of the open-source Quantum ESPRESSO suite
     for quantum simulation of materials; please cite
         "P. Giannozzi et al., J. Phys.:Condens. Matter 21 395502 (2009);
          URL http://www.quantum-espresso.org", 
     in publications or presentations arising from this work. More details at
     http://www.quantum-espresso.org/quote

     Parallel version (MPI), running on     1 processors
     Waiting for input...
     Reading input from standard input
Warning: card &IONS ignored
Warning: card / ignored
Warning: card &CELL ignored
Warning: card / ignored

     Current dimensions of program PWSCF are:
     Max number of different atomic species (ntypx) = 10
     Max number of k-points (npk) =  40000
     Max angular momentum in pseudopotentials (lmaxx) =  3
               file Si.pbe-n-kjpaw_psl.0.1.UPF: wavefunction(s)  3S renormalized

     Subspace diagonalization in iterative solution of the eigenvalue problem:
     a serial algorithm will be used

 
     G-vector sticks info
     --------------------
     sticks:   dense  smooth     PW     G-vecs:    dense   smooth      PW
     Sum         733     733    223                12939    12939    2229
 


     bravais-lattice index     =            2
     lattice parameter (alat)  =      10.2600  a.u.
     unit-cell volume          =     270.0114 (a.u.)^3
     number of atoms/cell      =            2
     number of atomic types    =            1
     number of electrons       =         8.00
     number of Kohn-Sham states=            4
     kinetic-energy cutoff     =      50.0000  Ry
     charge density cutoff     =     200.0000  Ry
     convergence threshold     =      1.0E-06
     mixing beta               =       0.7000
     number of iterations used =            8  plain     mixing
     Exchange-correlation      =  SLA  PW   PBX  PBC ( 1  4  3  4 0)

     celldm(1)=  10.260000  celldm(2)=   0.000000  celldm(3)=   0.000000
     celldm(4)=   0.000000  celldm(5)=   0.000000  celldm(6)=   0.000000

     crystal axes: (cart. coord. in units of alat)
               a(1) = (  -0.500000   0.000000   0.500000 )  
               a(2) = (   0.000000   0.500000   0.500000 )  
               a(3) = (  -0.500000   0.500000   0.000000 )  

     reciprocal axes: (cart. coord. in units 2 pi/alat)
               b(1) = ( -1.000000 -1.000000  1.000000 )  
               b(2) = (  1.000000  1.000000  1.000000 )  
               b(3) = ( -1.000000  1.000000 -1.000000 )  


     PseudoPot. # 1 for Si read from file:
     ./Si.pbe-n-kjpaw_psl.0.1.UPF
     MD5 check sum: b9d333a40e496bef61db012f150758bf
     Pseudo is Projector augmented-wave + core cor, Zval =  4.0
     Generated using "atomic" code by A. Dal Corso  v.5.0.2 svn rev. 9415
     Shape of augmentation charge: PSQ
     Using radial grid of 1141 points,  4 beta functions with: 
                l(1) =   0
                l(2) =   0
                l(3) =   1
                l(4) =   1
     Q(r) pseudized with 0 coefficients 


     atomic species   valence    mass     pseudopotential
        Si             4.00    28.05500     Si( 1.00)

      2 Sym. Ops. (no inversion) found
          (note:  2 additional sym.ops. were found but ignored
           their fractional translations are incommensurate with FFT grid)


   Cartesian axes

     site n.     atom                  positions (alat units)
         1           Si  tau(   1) = (  -0.0250000   0.0250000   0.0000000  )
         2           Si  tau(   2) = (  -0.2500000   0.2500000   0.2500000  )

     number of k points=   282

     Number of k-points >= 100: set verbosity='high' to print them.

     Dense  grid:    12939 G-vectors     FFT dimensions: (  36,  36,  36)

     Largest allocated arrays     est. size (Mb)     dimensions
        Kohn-Sham Wavefunctions         0.10 Mb     (    1639,    4)
        NL pseudopotentials             0.40 Mb     (    1639,   16)
        Each V/rho on FFT grid          0.71 Mb     (   46656)
        Each G-vector array             0.10 Mb     (   12939)
        G-vector shells                 0.00 Mb     (     180)
     Largest temporary arrays     est. size (Mb)     dimensions
        Auxiliary wavefunctions         0.40 Mb     (    1639,   16)
        Each subspace H/S matrix        0.00 Mb     (      16,   16)
        Each <psi_i|beta_j> matrix      0.00 Mb     (      16,    4)
        Arrays for rho mixing           5.70 Mb     (   46656,    8)

     Initial potential from superposition of free atoms

     starting charge    7.99888, renormalised to    8.00000
     Starting wfc are    8 randomized atomic wfcs
     Checking if some PAW data can be deallocated... 

     total cpu time spent up to now is        8.4 secs

     per-process dynamical memory:    39.9 Mb

     Self-consistent Calculation

     iteration #  1     ecut=    50.00 Ry     beta=0.70
     Davidson diagonalization with overlap
     ethr =  1.00E-02,  avg # of iterations =  2.0

     Threshold (ethr) on eigenvalues was too large:
     Diagonalizing with lowered threshold

     Davidson diagonalization with overlap
     ethr =  7.30E-04,  avg # of iterations =  1.0

     total cpu time spent up to now is       31.4 secs

     total energy              =     -93.43283072 Ry
     Harris-Foulkes estimate   =     -93.44740056 Ry
     estimated scf accuracy    <       0.05785373 Ry

     iteration #  2     ecut=    50.00 Ry     beta=0.70
     Davidson diagonalization with overlap
     ethr =  7.23E-04,  avg # of iterations =  1.0

     total cpu time spent up to now is       41.2 secs

     total energy              =     -93.43515396 Ry
     Harris-Foulkes estimate   =     -93.43529328 Ry
     estimated scf accuracy    <       0.00238920 Ry

     iteration #  3     ecut=    50.00 Ry     beta=0.70
     Davidson diagonalization with overlap
     ethr =  2.99E-05,  avg # of iterations =  2.4

     total cpu time spent up to now is       53.1 secs

     total energy              =     -93.43548967 Ry
     Harris-Foulkes estimate   =     -93.43551031 Ry
     estimated scf accuracy    <       0.00005973 Ry

     iteration #  4     ecut=    50.00 Ry     beta=0.70
     Davidson diagonalization with overlap
     ethr =  7.47E-07,  avg # of iterations =  2.8

     total cpu time spent up to now is       67.4 secs

     total energy              =     -93.43551551 Ry
     Harris-Foulkes estimate   =     -93.43551689 Ry
     estimated scf accuracy    <       0.00000358 Ry

     iteration #  5     ecut=    50.00 Ry     beta=0.70
     Davidson diagonalization with overlap
     ethr =  4.48E-08,  avg # of iterations =  2.6

     total cpu time spent up to now is       81.3 secs

     End of self-consistent calculation

     Number of k-points >= 100: set verbosity='high' to print the bands.

     highest occupied level (ev):     7.1650

!    total energy              =     -93.43551668 Ry
     Harris-Foulkes estimate   =     -93.43551678 Ry
     estimated scf accuracy    <       0.00000012 Ry

     total all-electron energy =     -1160.127253 Ry

     The total energy is the sum of the following terms:

     one-electron contribution =       5.72761200 Ry
     hartree contribution      =       1.10038340 Ry
     xc contribution           =     -12.25815695 Ry
     ewald contribution        =     -16.76815041 Ry
     one-center paw contrib.   =     -71.23720471 Ry

     convergence has been achieved in   5 iterations

     Forces acting on atoms (Ry/au):

     atom    1 type  1   force =     0.07186125   -0.07186125   -0.02584255
     atom    2 type  1   force =    -0.07186125    0.07186125    0.02584255

     Total force =     0.148296     Total SCF correction =     0.000061


     entering subroutine stress ...

          total   stress  (Ry/bohr**3)                   (kbar)     P=   32.00
   0.00018835  -0.00010573  -0.00037589         27.71    -15.55    -55.29
  -0.00010573   0.00018835   0.00037589        -15.55     27.71     55.29
  -0.00037589   0.00037589   0.00027580        -55.29     55.29     40.57


     Writing output data file pwscf.save
 
     init_run     :      8.00s CPU      8.07s WALL (       1 calls)
     electrons    :     72.47s CPU     72.92s WALL (       1 calls)
     forces       :      0.62s CPU      0.62s WALL (       1 calls)
     stress       :      2.59s CPU      2.60s WALL (       1 calls)

     Called by init_run:
     wfcinit      :      7.20s CPU      7.26s WALL (       1 calls)
     potinit      :      0.22s CPU      0.22s WALL (       1 calls)

     Called by electrons:
     c_bands      :     59.43s CPU     59.81s WALL (       6 calls)
     sum_band     :     11.85s CPU     11.92s WALL (       6 calls)
     v_of_rho     :      0.30s CPU      0.30s WALL (       6 calls)
     newd         :      0.13s CPU      0.13s WALL (       6 calls)
     mix_rho      :      0.02s CPU      0.02s WALL (       6 calls)

     Called by c_bands:
     init_us_2    :      2.36s CPU      2.40s WALL (    4230 calls)
     cegterg      :     55.36s CPU     55.70s WALL (    1692 calls)

     Called by *egterg:
     h_psi        :     57.60s CPU     57.98s WALL (    5295 calls)
     s_psi        :      1.00s CPU      0.99s WALL (    5295 calls)
     g_psi        :      0.46s CPU      0.45s WALL (    3321 calls)
     cdiaghg      :      0.41s CPU      0.41s WALL (    4731 calls)

     Called by h_psi:
     add_vuspsi   :      0.90s CPU      0.99s WALL (    5295 calls)

     General routines
     calbec       :      1.52s CPU      1.50s WALL (    7551 calls)
     fft          :      0.20s CPU      0.21s WALL (     105 calls)
     fftw         :     59.20s CPU     59.38s WALL (   47246 calls)
     davcio       :      0.00s CPU      0.02s WALL (     282 calls)
 
     Parallel routines
     fft_scatter  :      3.88s CPU      4.05s WALL (   47351 calls)

     PAW routines
     PAW_pot      :      0.95s CPU      0.95s WALL (       6 calls)
     PAW_symme    :      0.00s CPU      0.00s WALL (      12 calls)
 
     PWSCF        :  1m24.73s CPU     1m27.41s WALL

 
   This run was terminated on:  12:38:25  28Apr2015            

=------------------------------------------------------------------------------=
   JOB DONE.
=------------------------------------------------------------------------------=
