
     Program PWSCF v.5.1 starts on 28Apr2015 at 12:34: 8 

     This program is part of the open-source Quantum ESPRESSO suite
     for quantum simulation of materials; please cite
         "P. Giannozzi et al., J. Phys.:Condens. Matter 21 395502 (2009);
          URL http://www.quantum-espresso.org", 
     in publications or presentations arising from this work. More details at
     http://www.quantum-espresso.org/quote

     Parallel version (MPI), running on     1 processors
     Waiting for input...
     Reading input from standard input
Warning: card &IONS ignored
Warning: card / ignored
Warning: card &CELL ignored
Warning: card / ignored

     Current dimensions of program PWSCF are:
     Max number of different atomic species (ntypx) = 10
     Max number of k-points (npk) =  40000
     Max angular momentum in pseudopotentials (lmaxx) =  3
               file Si.pbe-n-kjpaw_psl.0.1.UPF: wavefunction(s)  3S renormalized

     Subspace diagonalization in iterative solution of the eigenvalue problem:
     a serial algorithm will be used

 
     G-vector sticks info
     --------------------
     sticks:   dense  smooth     PW     G-vecs:    dense   smooth      PW
     Sum         733     733    223                12939    12939    2133
 


     bravais-lattice index     =            2
     lattice parameter (alat)  =      10.2600  a.u.
     unit-cell volume          =     270.0114 (a.u.)^3
     number of atoms/cell      =            2
     number of atomic types    =            1
     number of electrons       =         8.00
     number of Kohn-Sham states=            4
     kinetic-energy cutoff     =      50.0000  Ry
     charge density cutoff     =     200.0000  Ry
     convergence threshold     =      1.0E-06
     mixing beta               =       0.7000
     number of iterations used =            8  plain     mixing
     Exchange-correlation      =  SLA  PW   PBX  PBC ( 1  4  3  4 0)

     celldm(1)=  10.260000  celldm(2)=   0.000000  celldm(3)=   0.000000
     celldm(4)=   0.000000  celldm(5)=   0.000000  celldm(6)=   0.000000

     crystal axes: (cart. coord. in units of alat)
               a(1) = (  -0.500000   0.000000   0.500000 )  
               a(2) = (   0.000000   0.500000   0.500000 )  
               a(3) = (  -0.500000   0.500000   0.000000 )  

     reciprocal axes: (cart. coord. in units 2 pi/alat)
               b(1) = ( -1.000000 -1.000000  1.000000 )  
               b(2) = (  1.000000  1.000000  1.000000 )  
               b(3) = ( -1.000000  1.000000 -1.000000 )  


     PseudoPot. # 1 for Si read from file:
     ./Si.pbe-n-kjpaw_psl.0.1.UPF
     MD5 check sum: b9d333a40e496bef61db012f150758bf
     Pseudo is Projector augmented-wave + core cor, Zval =  4.0
     Generated using "atomic" code by A. Dal Corso  v.5.0.2 svn rev. 9415
     Shape of augmentation charge: PSQ
     Using radial grid of 1141 points,  4 beta functions with: 
                l(1) =   0
                l(2) =   0
                l(3) =   1
                l(4) =   1
     Q(r) pseudized with 0 coefficients 


     atomic species   valence    mass     pseudopotential
        Si             4.00    28.05500     Si( 1.00)

      2 Sym. Ops. (no inversion) found
          (note:  2 additional sym.ops. were found but ignored
           their fractional translations are incommensurate with FFT grid)


   Cartesian axes

     site n.     atom                  positions (alat units)
         1           Si  tau(   1) = (  -0.0250000   0.0250000   0.0000000  )
         2           Si  tau(   2) = (  -0.2500000   0.2500000   0.2500000  )

     number of k points=    68
                       cart. coord. in units 2pi/alat
        k(    1) = (   0.0000000   0.0000000   0.0000000), wk =   0.0092593
        k(    2) = (  -0.1666667   0.1666667  -0.1666667), wk =   0.0185185
        k(    3) = (  -0.3333333   0.3333333  -0.3333333), wk =   0.0185185
        k(    4) = (   0.5000000  -0.5000000   0.5000000), wk =   0.0092593
        k(    5) = (   0.0000000   0.3333333   0.0000000), wk =   0.0370370
        k(    6) = (  -0.1666667   0.5000000  -0.1666667), wk =   0.0370370
        k(    7) = (   0.6666667  -0.3333333   0.6666667), wk =   0.0370370
        k(    8) = (   0.5000000  -0.1666667   0.5000000), wk =   0.0370370
        k(    9) = (   0.3333333   0.0000000   0.3333333), wk =   0.0370370
        k(   10) = (   0.0000000   0.6666667   0.0000000), wk =   0.0370370
        k(   11) = (   0.8333333  -0.1666667   0.8333333), wk =   0.0370370
        k(   12) = (   0.6666667  -0.0000000   0.6666667), wk =   0.0370370
        k(   13) = (   0.0000000  -1.0000000   0.0000000), wk =   0.0185185
        k(   14) = (   0.6666667  -0.3333333   1.0000000), wk =   0.0370370
        k(   15) = (   0.5000000  -0.1666667   0.8333333), wk =   0.0370370
        k(   16) = (  -0.3333333  -1.0000000   0.0000000), wk =   0.0370370
        k(   17) = (   0.1666667   0.1666667   0.1666667), wk =   0.0370370
        k(   18) = (  -0.1666667   0.1666667   0.1666667), wk =   0.0185185
        k(   19) = (   0.3333333   0.3333333   0.3333333), wk =   0.0370370
        k(   20) = (  -0.3333333   0.3333333   0.3333333), wk =   0.0185185
        k(   21) = (  -0.5000000  -0.5000000  -0.5000000), wk =   0.0185185
        k(   22) = (   0.5000000  -0.5000000  -0.5000000), wk =   0.0092593
        k(   23) = (   0.0000000   0.0000000   0.3333333), wk =   0.0185185
        k(   24) = (   0.1666667   0.5000000   0.1666667), wk =   0.0370370
        k(   25) = (  -0.1666667  -0.5000000   0.1666667), wk =   0.0370370
        k(   26) = (  -0.5000000   0.1666667   0.1666667), wk =   0.0370370
        k(   27) = (   0.1666667  -0.1666667   0.5000000), wk =   0.0185185
        k(   28) = (   0.1666667   0.1666667  -0.5000000), wk =   0.0370370
        k(   29) = (  -0.1666667   0.1666667   0.5000000), wk =   0.0185185
        k(   30) = (  -0.6666667  -0.3333333  -0.6666667), wk =   0.0370370
        k(   31) = (   0.6666667   0.3333333  -0.6666667), wk =   0.0370370
        k(   32) = (   0.3333333  -0.6666667  -0.6666667), wk =   0.0370370
        k(   33) = (  -0.6666667   0.6666667  -0.3333333), wk =   0.0185185
        k(   34) = (  -0.6666667  -0.6666667   0.3333333), wk =   0.0370370
        k(   35) = (   0.6666667  -0.6666667  -0.3333333), wk =   0.0185185
        k(   36) = (  -0.5000000  -0.1666667  -0.5000000), wk =   0.0370370
        k(   37) = (   0.5000000   0.1666667  -0.5000000), wk =   0.0370370
        k(   38) = (   0.1666667  -0.5000000  -0.5000000), wk =   0.0370370
        k(   39) = (  -0.5000000   0.5000000  -0.1666667), wk =   0.0185185
        k(   40) = (  -0.5000000  -0.5000000   0.1666667), wk =   0.0370370
        k(   41) = (   0.5000000  -0.5000000  -0.1666667), wk =   0.0185185
        k(   42) = (   0.3333333   0.0000000  -0.3333333), wk =   0.0370370
        k(   43) = (  -0.3333333   0.3333333   0.0000000), wk =   0.0185185
        k(   44) = (  -0.3333333  -0.3333333   0.0000000), wk =   0.0185185
        k(   45) = (   0.0000000   0.0000000   0.6666667), wk =   0.0185185
        k(   46) = (  -0.8333333  -0.1666667  -0.8333333), wk =   0.0370370
        k(   47) = (   0.8333333   0.1666667  -0.8333333), wk =   0.0370370
        k(   48) = (   0.1666667  -0.8333333  -0.8333333), wk =   0.0370370
        k(   49) = (  -0.8333333   0.8333333  -0.1666667), wk =   0.0185185
        k(   50) = (  -0.8333333  -0.8333333   0.1666667), wk =   0.0370370
        k(   51) = (   0.8333333  -0.8333333  -0.1666667), wk =   0.0185185
        k(   52) = (   0.6666667   0.0000000  -0.6666667), wk =   0.0370370
        k(   53) = (  -0.6666667   0.6666667   0.0000000), wk =   0.0185185
        k(   54) = (  -0.6666667  -0.6666667   0.0000000), wk =   0.0185185
        k(   55) = (   0.0000000   0.0000000  -1.0000000), wk =   0.0092593
        k(   56) = (  -0.6666667  -0.3333333  -1.0000000), wk =   0.0370370
        k(   57) = (   1.0000000   0.3333333   0.6666667), wk =   0.0370370
        k(   58) = (  -1.0000000   0.3333333  -0.6666667), wk =   0.0370370
        k(   59) = (  -0.6666667   1.0000000  -0.3333333), wk =   0.0370370
        k(   60) = (  -0.6666667  -1.0000000   0.3333333), wk =   0.0370370
        k(   61) = (  -0.5000000  -0.1666667  -0.8333333), wk =   0.0370370
        k(   62) = (   0.5000000   0.1666667  -0.8333333), wk =   0.0370370
        k(   63) = (   0.1666667  -0.5000000  -0.8333333), wk =   0.0370370
        k(   64) = (   0.8333333   0.1666667   0.5000000), wk =   0.0370370
        k(   65) = (  -0.8333333   0.1666667  -0.5000000), wk =   0.0185185
        k(   66) = (   0.8333333  -0.1666667  -0.5000000), wk =   0.0185185
        k(   67) = (   0.0000000   1.0000000  -0.3333333), wk =   0.0370370
        k(   68) = (   0.3333333   0.0000000  -1.0000000), wk =   0.0370370

     Dense  grid:    12939 G-vectors     FFT dimensions: (  36,  36,  36)

     Largest allocated arrays     est. size (Mb)     dimensions
        Kohn-Sham Wavefunctions         0.10 Mb     (    1639,    4)
        NL pseudopotentials             0.40 Mb     (    1639,   16)
        Each V/rho on FFT grid          0.71 Mb     (   46656)
        Each G-vector array             0.10 Mb     (   12939)
        G-vector shells                 0.00 Mb     (     180)
     Largest temporary arrays     est. size (Mb)     dimensions
        Auxiliary wavefunctions         0.40 Mb     (    1639,   16)
        Each subspace H/S matrix        0.00 Mb     (      16,   16)
        Each <psi_i|beta_j> matrix      0.00 Mb     (      16,    4)
        Arrays for rho mixing           5.70 Mb     (   46656,    8)

     Initial potential from superposition of free atoms

     starting charge    7.99888, renormalised to    8.00000
     Starting wfc are    8 randomized atomic wfcs
     Checking if some PAW data can be deallocated... 

     total cpu time spent up to now is        2.8 secs

     per-process dynamical memory:    18.0 Mb

     Self-consistent Calculation

     iteration #  1     ecut=    50.00 Ry     beta=0.70
     Davidson diagonalization with overlap
     ethr =  1.00E-02,  avg # of iterations =  2.0

     Threshold (ethr) on eigenvalues was too large:
     Diagonalizing with lowered threshold

     Davidson diagonalization with overlap
     ethr =  7.42E-04,  avg # of iterations =  1.0

     total cpu time spent up to now is        8.6 secs

     total energy              =     -93.43100090 Ry
     Harris-Foulkes estimate   =     -93.44586384 Ry
     estimated scf accuracy    <       0.05890523 Ry

     iteration #  2     ecut=    50.00 Ry     beta=0.70
     Davidson diagonalization with overlap
     ethr =  7.36E-04,  avg # of iterations =  1.0

     total cpu time spent up to now is       11.2 secs

     total energy              =     -93.43335152 Ry
     Harris-Foulkes estimate   =     -93.43349132 Ry
     estimated scf accuracy    <       0.00243882 Ry

     iteration #  3     ecut=    50.00 Ry     beta=0.70
     Davidson diagonalization with overlap
     ethr =  3.05E-05,  avg # of iterations =  2.2

     total cpu time spent up to now is       14.3 secs

     total energy              =     -93.43366150 Ry
     Harris-Foulkes estimate   =     -93.43367924 Ry
     estimated scf accuracy    <       0.00005864 Ry

     iteration #  4     ecut=    50.00 Ry     beta=0.70
     Davidson diagonalization with overlap
     ethr =  7.33E-07,  avg # of iterations =  2.9

     total cpu time spent up to now is       18.0 secs

     total energy              =     -93.43368907 Ry
     Harris-Foulkes estimate   =     -93.43369004 Ry
     estimated scf accuracy    <       0.00000264 Ry

     iteration #  5     ecut=    50.00 Ry     beta=0.70
     Davidson diagonalization with overlap
     ethr =  3.30E-08,  avg # of iterations =  2.9

     total cpu time spent up to now is       21.8 secs

     End of self-consistent calculation

          k = 0.0000 0.0000 0.0000 (  1639 PWs)   bands (ev):

    -5.7886   5.3405   6.2648   7.1727

          k =-0.1667 0.1667-0.1667 (  1591 PWs)   bands (ev):

    -5.4452   4.2339   5.1539   5.8832

          k =-0.3333 0.3333-0.3333 (  1609 PWs)   bands (ev):

    -4.5116   1.3164   4.6745   5.4061

          k = 0.5000-0.5000 0.5000 (  1622 PWs)   bands (ev):

    -3.7339  -0.1587   4.5021   5.2352

          k = 0.0000 0.3333 0.0000 (  1607 PWs)   bands (ev):

    -5.3076   3.9362   4.8175   5.4389

          k =-0.1667 0.5000-0.1667 (  1611 PWs)   bands (ev):

    -4.5415   2.1169   3.9716   4.3768

          k = 0.6667-0.3333 0.6667 (  1607 PWs)   bands (ev):

    -3.5337   0.1714   3.2997   4.2302

          k = 0.5000-0.1667 0.5000 (  1610 PWs)   bands (ev):

    -3.8510   0.7542   3.0214   4.6190

          k = 0.3333 0.0000 0.3333 (  1604 PWs)   bands (ev):

    -4.8784   2.8873   3.7013   5.2227

          k = 0.0000 0.6667 0.0000 (  1624 PWs)   bands (ev):

    -3.9049   1.1702   3.5767   4.0574

          k = 0.8333-0.1667 0.8333 (  1619 PWs)   bands (ev):

    -2.8910  -0.0738   2.6754   3.4455

          k = 0.6667-0.0000 0.6667 (  1612 PWs)   bands (ev):

    -2.7824  -0.1541   1.9008   3.8398

          k = 0.0000-1.0000 0.0000 (  1604 PWs)   bands (ev):

    -2.0642  -1.2085   3.1511   3.5912

          k = 0.6667-0.3333 1.0000 (  1610 PWs)   bands (ev):

    -3.5236   0.5101   2.6961   3.9290

          k = 0.5000-0.1667 0.8333 (  1610 PWs)   bands (ev):

    -2.7847  -0.1183   1.9818   3.4169

          k =-0.3333-1.0000 0.0000 (  1618 PWs)   bands (ev):

    -1.9225  -1.1250   2.3499   2.8150

          k = 0.1667 0.1667 0.1667 (  1591 PWs)   bands (ev):

    -5.4294   3.7369   5.2220   6.4457

          k =-0.1667 0.1667 0.1667 (  1591 PWs)   bands (ev):

    -5.4129   3.3077   5.7062   6.3719

          k = 0.3333 0.3333 0.3333 (  1609 PWs)   bands (ev):

    -4.4230   0.8565   4.6741   5.8498

          k =-0.3333 0.3333 0.3333 (  1609 PWs)   bands (ev):

    -4.3237   0.4114   5.0729   5.6920

          k =-0.5000-0.5000-0.5000 (  1622 PWs)   bands (ev):

    -3.4904  -0.7481   4.4769   5.6579

          k = 0.5000-0.5000-0.5000 (  1622 PWs)   bands (ev):

    -3.1145  -1.4494   4.8489   5.4704

          k = 0.0000 0.0000 0.3333 (  1607 PWs)   bands (ev):

    -5.3060   3.7805   5.0305   5.4369

          k = 0.1667 0.5000 0.1667 (  1611 PWs)   bands (ev):

    -4.4853   1.5969   4.1042   4.8210

          k =-0.1667-0.5000 0.1667 (  1611 PWs)   bands (ev):

    -4.5148   1.9399   3.6404   4.8417

          k =-0.5000 0.1667 0.1667 (  1611 PWs)   bands (ev):

    -4.4554   1.3769   4.2500   4.7999

          k = 0.1667-0.1667 0.5000 (  1611 PWs)   bands (ev):

    -4.5521   2.3232   3.5788   4.5341

          k = 0.1667 0.1667-0.5000 (  1611 PWs)   bands (ev):

    -4.4960   1.6849   3.9856   4.8363

          k =-0.1667 0.1667 0.5000 (  1611 PWs)   bands (ev):

    -4.4361   1.2295   4.4105   4.8619

          k =-0.6667-0.3333-0.6667 (  1607 PWs)   bands (ev):

    -3.3280  -0.4310   3.7315   4.2135

          k = 0.6667 0.3333-0.6667 (  1607 PWs)   bands (ev):

    -3.3416  -0.3272   3.0231   4.8355

          k = 0.3333-0.6667-0.6667 (  1607 PWs)   bands (ev):

    -3.0548  -0.9891   3.4682   4.7344

          k =-0.6667 0.6667-0.3333 (  1607 PWs)   bands (ev):

    -3.5333   0.2213   2.9478   4.5352

          k =-0.6667-0.6667 0.3333 (  1607 PWs)   bands (ev):

    -3.3282  -0.3985   3.2641   4.6943

          k = 0.6667-0.6667-0.3333 (  1607 PWs)   bands (ev):

    -3.0333  -1.0526   3.8923   4.3519

          k =-0.5000-0.1667-0.5000 (  1610 PWs)   bands (ev):

    -3.7535   0.3117   3.4038   4.5568

          k = 0.5000 0.1667-0.5000 (  1610 PWs)   bands (ev):

    -3.6543   0.0638   2.9165   5.3819

          k = 0.1667-0.5000-0.5000 (  1610 PWs)   bands (ev):

    -3.5277  -0.3443   3.2310   5.2765

          k =-0.5000 0.5000-0.1667 (  1610 PWs)   bands (ev):

    -3.8067   0.6152   2.8050   5.0135

          k =-0.5000-0.5000 0.1667 (  1610 PWs)   bands (ev):

    -3.7072   0.2141   3.0130   5.1368

          k = 0.5000-0.5000-0.1667 (  1610 PWs)   bands (ev):

    -3.5851  -0.2263   3.5029   4.8414

          k = 0.3333 0.0000-0.3333 (  1604 PWs)   bands (ev):

    -4.8101   2.0272   3.8582   6.2093

          k =-0.3333 0.3333 0.0000 (  1604 PWs)   bands (ev):

    -4.8454   2.3586   3.8862   5.6711

          k =-0.3333-0.3333 0.0000 (  1604 PWs)   bands (ev):

    -4.8464   2.5231   3.5612   5.9098

          k = 0.0000 0.0000 0.6667 (  1624 PWs)   bands (ev):

    -3.8931   1.0634   3.7946   3.9825

          k =-0.8333-0.1667-0.8333 (  1619 PWs)   bands (ev):

    -2.7713  -0.3973   2.9283   3.4350

          k = 0.8333 0.1667-0.8333 (  1619 PWs)   bands (ev):

    -2.7983  -0.2175   2.2198   3.9220

          k = 0.1667-0.8333-0.8333 (  1619 PWs)   bands (ev):

    -2.6518  -0.5963   2.4986   3.9024

          k =-0.8333 0.8333-0.1667 (  1619 PWs)   bands (ev):

    -2.8715  -0.0868   2.4144   3.6758

          k =-0.8333-0.8333 0.1667 (  1619 PWs)   bands (ev):

    -2.7493  -0.4125   2.5552   3.8190

          k = 0.8333-0.8333-0.1667 (  1619 PWs)   bands (ev):

    -2.5872  -0.7787   2.9249   3.6391

          k = 0.6667 0.0000-0.6667 (  1612 PWs)   bands (ev):

    -2.3323  -0.9628   1.7144   4.3961

          k =-0.6667 0.6667 0.0000 (  1612 PWs)   bands (ev):

    -2.5666  -0.6141   1.8778   4.1020

          k =-0.6667-0.6667 0.0000 (  1612 PWs)   bands (ev):

    -2.5847  -0.5330   1.7248   4.2619

          k = 0.0000 0.0000-1.0000 (  1604 PWs)   bands (ev):

    -1.7647  -1.5801   3.3579   3.5021

          k =-0.6667-0.3333-1.0000 (  1610 PWs)   bands (ev):

    -3.5279   0.5888   2.4804   4.0971

          k = 1.0000 0.3333 0.6667 (  1610 PWs)   bands (ev):

    -3.4352   0.2040   2.6389   4.2745

          k =-1.0000 0.3333-0.6667 (  1610 PWs)   bands (ev):

    -3.6118   0.9664   2.5483   3.6442

          k =-0.6667 1.0000-0.3333 (  1610 PWs)   bands (ev):

    -3.6020   0.8776   2.6436   3.6478

          k =-0.6667-1.0000 0.3333 (  1610 PWs)   bands (ev):

    -3.4233   0.1504   2.6762   4.3029

          k =-0.5000-0.1667-0.8333 (  1610 PWs)   bands (ev):

    -2.6391  -0.5360   2.4624   3.2000

          k = 0.5000 0.1667-0.8333 (  1610 PWs)   bands (ev):

    -2.5143  -0.6820   1.9062   3.8354

          k = 0.1667-0.5000-0.8333 (  1610 PWs)   bands (ev):

    -2.2096  -1.2531   2.4201   3.5379

          k = 0.8333 0.1667 0.5000 (  1610 PWs)   bands (ev):

    -2.5974  -0.5694   2.1378   3.5231

          k =-0.8333 0.1667-0.5000 (  1610 PWs)   bands (ev):

    -2.8469  -0.0039   2.2763   3.0377

          k = 0.8333-0.1667-0.5000 (  1610 PWs)   bands (ev):

    -2.1301  -1.3178   2.1347   3.8320

          k = 0.0000 1.0000-0.3333 (  1618 PWs)   bands (ev):

    -1.9668  -1.0598   2.3118   2.8261

          k = 0.3333 0.0000-1.0000 (  1618 PWs)   bands (ev):

    -1.7804  -1.3159   2.4926   2.7332

     highest occupied level (ev):     7.1727

!    total energy              =     -93.43369011 Ry
     Harris-Foulkes estimate   =     -93.43369020 Ry
     estimated scf accuracy    <       0.00000011 Ry

     total all-electron energy =     -1160.125426 Ry

     The total energy is the sum of the following terms:

     one-electron contribution =       5.72723328 Ry
     hartree contribution      =       1.10482376 Ry
     xc contribution           =     -12.26034236 Ry
     ewald contribution        =     -16.76815041 Ry
     one-center paw contrib.   =     -71.23725437 Ry

     convergence has been achieved in   5 iterations

     Forces acting on atoms (Ry/au):

     atom    1 type  1   force =     0.07233355   -0.07233355   -0.02594187
     atom    2 type  1   force =    -0.07233355    0.07233355    0.02594187

     Total force =     0.149247     Total SCF correction =     0.000069


     entering subroutine stress ...

          total   stress  (Ry/bohr**3)                   (kbar)     P=   32.72
   0.00019392  -0.00010833  -0.00037098         28.53    -15.94    -54.57
  -0.00010833   0.00019392   0.00037098        -15.94     28.53     54.57
  -0.00037098   0.00037098   0.00027952        -54.57     54.57     41.12


     Writing output data file pwscf.save
 
     init_run     :      2.50s CPU      2.52s WALL (       1 calls)
     electrons    :     18.85s CPU     18.96s WALL (       1 calls)
     forces       :      0.23s CPU      0.23s WALL (       1 calls)
     stress       :      0.81s CPU      0.82s WALL (       1 calls)

     Called by init_run:
     wfcinit      :      1.74s CPU      1.75s WALL (       1 calls)
     potinit      :      0.22s CPU      0.22s WALL (       1 calls)

     Called by electrons:
     c_bands      :     14.66s CPU     14.74s WALL (       6 calls)
     sum_band     :      3.00s CPU      3.03s WALL (       6 calls)
     v_of_rho     :      0.30s CPU      0.31s WALL (       6 calls)
     newd         :      0.13s CPU      0.13s WALL (       6 calls)
     mix_rho      :      0.02s CPU      0.03s WALL (       6 calls)

     Called by c_bands:
     init_us_2    :      0.60s CPU      0.58s WALL (    1020 calls)
     cegterg      :     13.67s CPU     13.75s WALL (     408 calls)

     Called by *egterg:
     h_psi        :     14.21s CPU     14.28s WALL (    1296 calls)
     s_psi        :      0.27s CPU      0.24s WALL (    1296 calls)
     g_psi        :      0.10s CPU      0.11s WALL (     820 calls)
     cdiaghg      :      0.10s CPU      0.10s WALL (    1160 calls)

     Called by h_psi:
     add_vuspsi   :      0.23s CPU      0.24s WALL (    1296 calls)

     General routines
     calbec       :      0.35s CPU      0.37s WALL (    1840 calls)
     fft          :      0.21s CPU      0.21s WALL (     105 calls)
     fftw         :     14.67s CPU     14.61s WALL (   11454 calls)
     davcio       :      0.00s CPU      0.00s WALL (      68 calls)
 
     Parallel routines
     fft_scatter  :      0.99s CPU      1.01s WALL (   11559 calls)

     PAW routines
     PAW_pot      :      0.95s CPU      0.95s WALL (       6 calls)
     PAW_symme    :      0.00s CPU      0.00s WALL (      12 calls)
 
     PWSCF        :    22.90s CPU        23.22s WALL

 
   This run was terminated on:  12:34:31  28Apr2015            

=------------------------------------------------------------------------------=
   JOB DONE.
=------------------------------------------------------------------------------=
