 argument  1 = NH3.nw
                                         
                                         


              Northwest Computational Chemistry Package (NWChem) 6.3
              ------------------------------------------------------


                    Environmental Molecular Sciences Laboratory
                       Pacific Northwest National Laboratory
                                Richland, WA 99352

                              Copyright (c) 1994-2012
                       Pacific Northwest National Laboratory
                            Battelle Memorial Institute

             NWChem is an open-source computational chemistry package
                        distributed under the terms of the
                      Educational Community License (ECL) 2.0
             A copy of the license is included with this distribution
                              in the LICENSE.TXT file

                                  ACKNOWLEDGMENT
                                  --------------

            This software and its documentation were developed at the
            EMSL at Pacific Northwest National Laboratory, a multiprogram
            national laboratory, operated for the U.S. Department of Energy
            by Battelle under Contract Number DE-AC05-76RL01830. Support
            for this work was provided by the Department of Energy Office
            of Biological and Environmental Research, Office of Basic
            Energy Sciences, and the Office of Advanced Scientific Computing.


           Job information
           ---------------

    hostname        = ChensPro.local
    program         = nwchem
    date            = Wed Apr 15 10:32:42 2015

    compiled        = Sat_Jul_20_13:52:43_2013
    source          = /Users/shyuepingong/Software/nwchem-6.3
    nwchem branch   = 6.3
    nwchem revision = 24277
    ga revision     = 10379
    input           = NH3.nw
    prefix          = NH3.
    data base       = ./NH3.db
    status          = startup
    nproc           =        1
    time left       =     -1s



           Memory information
           ------------------

    heap     =   32768001 doubles =    250.0 Mbytes
    stack    =   32768001 doubles =    250.0 Mbytes
    global   =   65536000 doubles =    500.0 Mbytes (distinct from heap & stack)
    total    =  131072002 doubles =   1000.0 Mbytes
    verify   = yes
    hardfail = no 


           Directory information
           ---------------------

  0 permanent = .
  0 scratch   = .




                                NWChem Input Module
                                -------------------



 Scaling coordinates for geometry "geometry" by  1.889725989
 (inverse scale =  0.529177249)

 C3V symmetry detected


                             Geometry "geometry" -> ""
                             -------------------------

 Output coordinates in angstroms (scale by  1.889725989 to convert to a.u.)

  No.       Tag          Charge          X              Y              Z
 ---- ---------------- ---------- -------------- -------------- --------------
    1 N                    7.0000     0.00000000     0.00000000     0.10898739
    2 H                    1.0000     0.72683573     0.72683573    -0.25430392
    3 H                    1.0000     0.26604034    -0.99287607    -0.25430392
    4 H                    1.0000    -0.99287607     0.26604034    -0.25430392

      Atomic Mass 
      ----------- 

      N                 14.003070
      H                  1.007825


 Effective nuclear repulsion energy (a.u.)      11.0848640562

            Nuclear Dipole moment (a.u.) 
            ----------------------------
        X                 Y               Z
 ---------------- ---------------- ----------------
     0.0000000000    -0.0000000000     0.0000000000

      Symmetry information
      --------------------

 Group name             C3v       
 Group number             17
 Group order               6
 No. of unique centers     2

      Symmetry unique atoms

     1    2


            XYZ format geometry
            -------------------
     4
 geometry
 N                     0.00000000     0.00000000     0.10898739
 H                     0.72683573     0.72683573    -0.25430392
 H                     0.26604034    -0.99287607    -0.25430392
 H                    -0.99287607     0.26604034    -0.25430392

 ==============================================================================
                                internuclear distances
 ------------------------------------------------------------------------------
       center one      |      center two      | atomic units |  angstroms
 ------------------------------------------------------------------------------
    2 H                |   1 N                |     2.06020  |     1.09021
    3 H                |   1 N                |     2.06020  |     1.09021
    4 H                |   1 N                |     2.06020  |     1.09021
 ------------------------------------------------------------------------------
                         number of included internuclear distances:          3
 ==============================================================================



 ==============================================================================
                                 internuclear angles
 ------------------------------------------------------------------------------
        center 1       |       center 2       |       center 3       |  degrees
 ------------------------------------------------------------------------------
    2 H                |   1 N                |   3 H                |   109.48
    2 H                |   1 N                |   4 H                |   109.48
    3 H                |   1 N                |   4 H                |   109.48
 ------------------------------------------------------------------------------
                            number of included internuclear angles:          3
 ==============================================================================



                                 H3N1 dft optimize
                                 -----------------
  library name resolved from: environment
  library file name is: </Users/chenzheng/Google Drive/nano266/resources/nwchem_basis/>
  
                      Basis "ao basis" -> "" (cartesian)
                      -----
  H (Hydrogen)
  ------------
            Exponent  Coefficients 
       -------------- ---------------------------------------------------------
  1 S  1.87311370E+01  0.033495
  1 S  2.82539370E+00  0.234727
  1 S  6.40121700E-01  0.813757

  2 S  1.61277800E-01  1.000000

  N (Nitrogen)
  ------------
            Exponent  Coefficients 
       -------------- ---------------------------------------------------------
  1 S  4.17351100E+03  0.001835
  1 S  6.27457900E+02  0.013995
  1 S  1.42902100E+02  0.068587
  1 S  4.02343300E+01  0.232241
  1 S  1.28202100E+01  0.469070
  1 S  4.39043700E+00  0.360455

  2 S  1.16263580E+01 -0.114961
  2 S  2.71628000E+00 -0.169118
  2 S  7.72218000E-01  1.145852

  3 P  1.16263580E+01  0.067580
  3 P  2.71628000E+00  0.323907
  3 P  7.72218000E-01  0.740895

  4 S  2.12031300E-01  1.000000

  5 P  2.12031300E-01  1.000000



 Summary of "ao basis" -> "" (cartesian)
 ------------------------------------------------------------------------------
       Tag                 Description            Shells   Functions and Types
 ---------------- ------------------------------  ------  ---------------------
 H                           6-31G                   2        2   2s
 N                           6-31G                   5        9   3s2p




                           NWChem Geometry Optimization
                           ----------------------------




                                 H3N1 dft optimize


 maximum gradient threshold         (gmax) =   0.000450
 rms gradient threshold             (grms) =   0.000300
 maximum cartesian step threshold   (xmax) =   0.001800
 rms cartesian step threshold       (xrms) =   0.001200
 fixed trust radius                (trust) =   0.300000
 maximum step size to saddle      (sadstp) =   0.100000
 energy precision                  (eprec) =   5.0D-06
 maximum number of steps          (nptopt) =   20
 initial hessian option           (inhess) =    0
 line search option               (linopt) =    1
 hessian update option            (modupd) =    1
 saddle point option              (modsad) =    0
 initial eigen-mode to follow     (moddir) =    0
 initial variable to follow       (vardir) =    0
 follow first negative mode     (firstneg) =    T
 apply conjugacy                    (opcg) =    F
 source of zmatrix                         =           


          -------------------
          Energy Minimization
          -------------------


 Using diagonal initial Hessian 

          --------
          Step   0
          --------


                         Geometry "geometry" -> "geometry"
                         ---------------------------------

 Output coordinates in angstroms (scale by  1.889725989 to convert to a.u.)

  No.       Tag          Charge          X              Y              Z
 ---- ---------------- ---------- -------------- -------------- --------------
    1 N                    7.0000     0.00000000     0.00000000     0.10898739
    2 H                    1.0000     0.72683573     0.72683573    -0.25430392
    3 H                    1.0000     0.26604034    -0.99287607    -0.25430392
    4 H                    1.0000    -0.99287607     0.26604034    -0.25430392

      Atomic Mass 
      ----------- 

      N                 14.003070
      H                  1.007825


 Effective nuclear repulsion energy (a.u.)      11.0848640562

            Nuclear Dipole moment (a.u.) 
            ----------------------------
        X                 Y               Z
 ---------------- ---------------- ----------------
     0.0000000000    -0.0000000000     0.0000000000

      Symmetry information
      --------------------

 Group name             C3v       
 Group number             17
 Group order               6
 No. of unique centers     2

      Symmetry unique atoms

     1    2


                                 NWChem DFT Module
                                 -----------------


                                 H3N1 dft optimize


  Caching 1-el integrals 
  Rotation of axis 

            General Information
            -------------------
          SCF calculation type: DFT
          Wavefunction type:  closed shell.
          No. of atoms     :     4
          No. of electrons :    10
           Alpha electrons :     5
            Beta electrons :     5
          Charge           :     0
          Spin multiplicity:     1
          Use of symmetry is: on ; symmetry adaption is: on 
          Maximum number of iterations:  30
          AO basis - number of functions:    15
                     number of shells:    11
          Convergence on energy requested: 1.00D-06
          Convergence on density requested: 1.00D-05
          Convergence on gradient requested: 5.00D-04

              XC Information
              --------------
          PerdewBurkeErnzerhof Exchange Functional  1.000          

             Grid Information
             ----------------
          Grid used for XC integration:  medium    
          Radial quadrature: Mura-Knowles        
          Angular quadrature: Lebedev. 
          Tag              B.-S. Rad. Rad. Pts. Rad. Cut. Ang. Pts.
          ---              ---------- --------- --------- ---------
          N                   0.65       49           5.0       434
          H                   0.35       45           7.0       434
          Grid pruning is: on 
          Number of quadrature shells:    94
          Spatial weights used:  Erf1

          Convergence Information
          -----------------------
          Convergence aids based upon iterative change in 
          total energy or number of iterations. 
          Levelshifting, if invoked, occurs when the 
          HOMO/LUMO gap drops below (HL_TOL): 1.00D-02
          DIIS, if invoked, will attempt to extrapolate 
          using up to (NFOCK): 10 stored Fock matrices.

                    Damping( 0%)  Levelshifting(0.5)       DIIS
                  --------------- ------------------- ---------------
          dE  on:    start            ASAP                start   
          dE off:    2 iters         30 iters            30 iters 


      Screening Tolerance Information
      -------------------------------
          Density screening/tol_rho: 1.00D-10
          AO Gaussian exp screening on grid/accAOfunc:  14
          CD Gaussian exp screening on grid/accCDfunc:  20
          XC Gaussian exp screening on grid/accXCfunc:  20
          Schwarz screening/accCoul: 1.00D-08


      Superposition of Atomic Density Guess
      -------------------------------------

 Sum of atomic energies:         -55.78843586

      Non-variational initial energy
      ------------------------------

 Total energy =     -56.000453
 1-e energy   =     -96.777215
 2-e energy   =      29.691899
 HOMO         =      -0.338974
 LUMO         =       0.100555


      Symmetry analysis of molecular orbitals - initial
      -------------------------------------------------

  Numbering of irreducible representations: 

     1 a1          2 a2          3 e       

  Orbital symmetries:

     1 a1          2 a1          3 e           4 e           5 a1      
     6 a1          7 e           8 e           9 a1         10 e       
    11 e          12 a1         13 e          14 e          15 a1      

   Time after variat. SCF:      0.1
   Time prior to 1st pass:      0.1

 #quartets = 7.350D+02 #integrals = 2.363D+03 #direct =  0.0% #cached =100.0%


 Integral file          = ./NH3.aoints.0
 Record size in doubles =  65536        No. of integs per rec  =  43688
 Max. records in memory =      2        Max. records in file   = 185781
 No. of bits per label  =      8        No. of bits per value  =     64


 Grid_pts file          = ./NH3.gridpts.0
 Record size in doubles =  12289        No. of grid_pts per rec  =   3070
 Max. records in memory =     16        Max. recs in file   =    990757


           Memory utilization after 1st SCF pass: 
           Heap Space remaining (MW):       32.44            32438919
          Stack Space remaining (MW):       32.77            32767788

   convergence    iter        energy       DeltaE   RMS-Dens  Diis-err    time
 ---------------- ----- ----------------- --------- --------- ---------  ------
 d= 0,ls=0.0,diis     1    -56.1045124417 -6.72D+01  4.56D-02  2.16D-01     0.2
 d= 0,ls=0.0,diis     2    -56.0905075235  1.40D-02  2.95D-02  3.62D-01     0.2
 d= 0,ls=0.0,diis     3    -56.1299668806 -3.95D-02  6.50D-03  2.38D-02     0.2
 d= 0,ls=0.0,diis     4    -56.1326612983 -2.69D-03  2.13D-04  1.73D-05     0.3
 d= 0,ls=0.0,diis     5    -56.1326638173 -2.52D-06  1.36D-05  1.00D-08     0.3
 d= 0,ls=0.0,diis     6    -56.1326638190 -1.70D-09  1.81D-06  6.05D-10     0.3


         Total DFT energy =      -56.132663818997
      One electron energy =      -97.977708420336
           Coulomb energy =       38.312965356241
    Exchange-Corr. energy =       -7.552784811126
 Nuclear repulsion energy =       11.084864056225

 Numeric. integr. density =       10.000000014996

     Total iterative time =      0.3s



                  Occupations of the irreducible representations
                  ----------------------------------------------

                     irrep           alpha         beta
                     --------     --------     --------
                     a1                3.0          3.0
                     a2                0.0          0.0
                     e                 2.0          2.0


                       DFT Final Molecular Orbital Analysis
                       ------------------------------------

 Vector    1  Occ=2.000000D+00  E=-1.396393D+01  Symmetry=a1
              MO Center= -9.7D-18,  1.5D-18,  1.1D-01, r^2= 2.0D-02
   Bfn.  Coefficient  Atom+Function         Bfn.  Coefficient  Atom+Function  
  ----- ------------  ---------------      ----- ------------  ---------------
     1      0.995052  1 N  s          

 Vector    2  Occ=2.000000D+00  E=-7.034957D-01  Symmetry=a1
              MO Center=  2.3D-17,  3.7D-18, -9.9D-02, r^2= 7.3D-01
   Bfn.  Coefficient  Atom+Function         Bfn.  Coefficient  Atom+Function  
  ----- ------------  ---------------      ----- ------------  ---------------
     6      0.442539  1 N  s                  2      0.420436  1 N  s          
     1     -0.199281  1 N  s          

 Vector    3  Occ=2.000000D+00  E=-3.550628D-01  Symmetry=e
              MO Center=  1.4D-01, -1.8D-01, -5.5D-02, r^2= 1.1D+00
   Bfn.  Coefficient  Atom+Function         Bfn.  Coefficient  Atom+Function  
  ----- ------------  ---------------      ----- ------------  ---------------
     4      0.467086  1 N  py                12     -0.287283  3 H  s          
    13     -0.229318  3 H  s                  8      0.218737  1 N  py         
    10      0.193024  2 H  s                 11      0.154078  2 H  s          

 Vector    4  Occ=2.000000D+00  E=-3.550628D-01  Symmetry=e
              MO Center= -1.4D-01,  1.8D-01, -5.5D-02, r^2= 1.1D+00
   Bfn.  Coefficient  Atom+Function         Bfn.  Coefficient  Atom+Function  
  ----- ------------  ---------------      ----- ------------  ---------------
     3      0.467086  1 N  px                14     -0.277305  4 H  s          
    10      0.220283  2 H  s                 15     -0.221354  4 H  s          
     7      0.218737  1 N  px                11      0.175837  2 H  s          

 Vector    5  Occ=2.000000D+00  E=-1.415535D-01  Symmetry=a1
              MO Center=  1.4D-17, -1.6D-17,  3.0D-01, r^2= 8.3D-01
   Bfn.  Coefficient  Atom+Function         Bfn.  Coefficient  Atom+Function  
  ----- ------------  ---------------      ----- ------------  ---------------
     5      0.553330  1 N  pz                 9      0.482333  1 N  pz         
     6      0.302498  1 N  s                  2      0.161742  1 N  s          

 Vector    6  Occ=0.000000D+00  E= 5.071887D-02  Symmetry=a1
              MO Center= -1.7D-16, -1.2D-16, -3.1D-01, r^2= 3.0D+00
   Bfn.  Coefficient  Atom+Function         Bfn.  Coefficient  Atom+Function  
  ----- ------------  ---------------      ----- ------------  ---------------
     6      1.487601  1 N  s                 11     -0.815785  2 H  s          
    13     -0.815785  3 H  s                 15     -0.815785  4 H  s          
     9     -0.386294  1 N  pz                 5     -0.219080  1 N  pz         
     2      0.196527  1 N  s          

 Vector    7  Occ=0.000000D+00  E= 1.398557D-01  Symmetry=e
              MO Center=  5.0D-01, -1.1D-01, -2.6D-01, r^2= 2.5D+00
   Bfn.  Coefficient  Atom+Function         Bfn.  Coefficient  Atom+Function  
  ----- ------------  ---------------      ----- ------------  ---------------
    11      1.245886  2 H  s                 13     -1.216296  3 H  s          
     8     -0.897050  1 N  py                 4     -0.442428  1 N  py         
     7     -0.260490  1 N  px         

 Vector    8  Occ=0.000000D+00  E= 1.398557D-01  Symmetry=e
              MO Center= -5.0D-01,  1.1D-01, -2.6D-01, r^2= 2.5D+00
   Bfn.  Coefficient  Atom+Function         Bfn.  Coefficient  Atom+Function  
  ----- ------------  ---------------      ----- ------------  ---------------
    15      1.421541  4 H  s                  7      0.897050  1 N  px         
    13     -0.736397  3 H  s                 11     -0.685144  2 H  s          
     3      0.442428  1 N  px                 8     -0.260490  1 N  py         

 Vector    9  Occ=0.000000D+00  E= 7.052631D-01  Symmetry=a1
              MO Center= -2.1D-17, -1.5D-17,  3.1D-01, r^2= 1.4D+00
   Bfn.  Coefficient  Atom+Function         Bfn.  Coefficient  Atom+Function  
  ----- ------------  ---------------      ----- ------------  ---------------
     9     -1.099565  1 N  pz                 5      1.005850  1 N  pz         
     6      0.383738  1 N  s                 11     -0.271519  2 H  s          
    13     -0.271519  3 H  s                 15     -0.271519  4 H  s          

 Vector   10  Occ=0.000000D+00  E= 7.361912D-01  Symmetry=e
              MO Center=  2.7D-03,  4.9D-03,  1.1D-01, r^2= 2.0D+00
   Bfn.  Coefficient  Atom+Function         Bfn.  Coefficient  Atom+Function  
  ----- ------------  ---------------      ----- ------------  ---------------
     8      0.932913  1 N  py                12      0.842452  3 H  s          
    14     -0.717144  4 H  s                  7     -0.704977  1 N  px         
     4     -0.311304  1 N  py                 3      0.235244  1 N  px         
    13     -0.199658  3 H  s                 15      0.169961  4 H  s          

 Vector   11  Occ=0.000000D+00  E= 7.361912D-01  Symmetry=e
              MO Center= -2.7D-03, -4.9D-03,  1.1D-01, r^2= 2.0D+00
   Bfn.  Coefficient  Atom+Function         Bfn.  Coefficient  Atom+Function  
  ----- ------------  ---------------      ----- ------------  ---------------
     7      0.932913  1 N  px                10     -0.900433  2 H  s          
     8      0.704977  1 N  py                14      0.558736  4 H  s          
    12      0.341697  3 H  s                  3     -0.311304  1 N  px         
     4     -0.235244  1 N  py                11      0.213400  2 H  s          

 Vector   12  Occ=0.000000D+00  E= 8.030453D-01  Symmetry=a1
              MO Center=  2.4D-15,  7.1D-16, -3.7D-01, r^2= 1.9D+00
   Bfn.  Coefficient  Atom+Function         Bfn.  Coefficient  Atom+Function  
  ----- ------------  ---------------      ----- ------------  ---------------
    10      0.737181  2 H  s                 12      0.737181  3 H  s          
    14      0.737181  4 H  s                  6      0.594160  1 N  s          
    11     -0.533088  2 H  s                 13     -0.533088  3 H  s          
    15     -0.533088  4 H  s                  2     -0.527371  1 N  s          
     9      0.277389  1 N  pz         

 Vector   13  Occ=0.000000D+00  E= 8.439570D-01  Symmetry=e
              MO Center=  1.2D-01,  2.9D-01, -1.1D-01, r^2= 2.0D+00
   Bfn.  Coefficient  Atom+Function         Bfn.  Coefficient  Atom+Function  
  ----- ------------  ---------------      ----- ------------  ---------------
    11      1.388081  2 H  s                  7     -1.138317  1 N  px         
    15     -0.929953  4 H  s                  3      0.792546  1 N  px         
     8     -0.764829  1 N  py                10     -0.583211  2 H  s          
     4      0.532507  1 N  py                13     -0.458128  3 H  s          
    14      0.390726  4 H  s                 12      0.192486  3 H  s          

 Vector   14  Occ=0.000000D+00  E= 8.439570D-01  Symmetry=e
              MO Center= -1.2D-01, -2.9D-01, -1.1D-01, r^2= 2.0D+00
   Bfn.  Coefficient  Atom+Function         Bfn.  Coefficient  Atom+Function  
  ----- ------------  ---------------      ----- ------------  ---------------
    13      1.338318  3 H  s                  8      1.138317  1 N  py         
    15     -1.065910  4 H  s                  4     -0.792546  1 N  py         
     7     -0.764829  1 N  px                12     -0.562303  3 H  s          
     3      0.532507  1 N  px                14      0.447849  4 H  s          
    11     -0.272408  2 H  s          

 Vector   15  Occ=0.000000D+00  E= 1.214107D+00  Symmetry=a1
              MO Center=  3.1D-16,  3.7D-16, -1.3D-01, r^2= 1.6D+00
   Bfn.  Coefficient  Atom+Function         Bfn.  Coefficient  Atom+Function  
  ----- ------------  ---------------      ----- ------------  ---------------
     6      3.271108  1 N  s                  2     -1.829833  1 N  s          
    11     -0.615589  2 H  s                 13     -0.615589  3 H  s          
    15     -0.615589  4 H  s                  9     -0.592762  1 N  pz         
    10     -0.346780  2 H  s                 12     -0.346780  3 H  s          
    14     -0.346780  4 H  s          


 center of mass
 --------------
 x =   0.00000000 y =  -0.00000000 z =   0.08404789

 moments of inertia (a.u.)
 ------------------
           6.875916168729           0.000000000000           0.000000000000
           0.000000000000           6.875916168729           0.000000000000
           0.000000000000           0.000000000000          11.407922994090

     Multipole analysis of the density
     ---------------------------------

     L   x y z        total         alpha         beta         nuclear
     -   - - -        -----         -----         ----         -------
     0   0 0 0     -0.000000     -5.000000     -5.000000     10.000000

     1   1 0 0      0.000000      0.000000      0.000000      0.000000
     1   0 1 0      0.000000      0.000000      0.000000     -0.000000
     1   0 0 1     -0.757497     -0.378748     -0.378748      0.000000

     2   2 0 0     -4.612692     -5.136183     -5.136183      5.659675
     2   1 1 0     -0.000000     -0.000000     -0.000000     -0.000000
     2   1 0 1      0.000000      0.000000      0.000000      0.000000
     2   0 2 0     -4.612692     -5.136183     -5.136183      5.659675
     2   0 1 1      0.000000      0.000000      0.000000      0.000000
     2   0 0 2     -6.911307     -3.950530     -3.950530      0.989753


 Parallel integral file used       1 records with       0 large values



                            NWChem DFT Gradient Module
                            --------------------------


                                 H3N1 dft optimize



  charge          =   0.00
  wavefunction    = closed shell

  Rotation of axis 
  Using symmetry


                         DFT ENERGY GRADIENTS

    atom               coordinates                        gradient
                 x          y          z           x          y          z
   1 N       0.000000   0.000000   0.205956    0.000000   0.000000   0.023583
   2 H       1.373520   1.373520  -0.480565    0.022264   0.022264  -0.007861
   3 H       0.502743  -1.876264  -0.480565    0.008149  -0.030414  -0.007861
   4 H      -1.876264   0.502743  -0.480565   -0.030414   0.008149  -0.007861

                 ----------------------------------------
                 |  Time  |  1-e(secs)   |  2-e(secs)   |
                 ----------------------------------------
                 |  CPU   |       0.00   |       0.01   |
                 ----------------------------------------
                 |  WALL  |       0.00   |       0.01   |
                 ----------------------------------------

@ Step       Energy      Delta E   Gmax     Grms     Xrms     Xmax   Walltime
@ ---- ---------------- -------- -------- -------- -------- -------- --------
@    0     -56.13266382  0.0D+00  0.03041  0.01760  0.00000  0.00000      0.4
                                                                    


                                 NWChem DFT Module
                                 -----------------


                                 H3N1 dft optimize


  Caching 1-el integrals 
  Rotation of axis 

            General Information
            -------------------
          SCF calculation type: DFT
          Wavefunction type:  closed shell.
          No. of atoms     :     4
          No. of electrons :    10
           Alpha electrons :     5
            Beta electrons :     5
          Charge           :     0
          Spin multiplicity:     1
          Use of symmetry is: on ; symmetry adaption is: on 
          Maximum number of iterations:  30
          AO basis - number of functions:    15
                     number of shells:    11
          Convergence on energy requested: 1.00D-06
          Convergence on density requested: 1.00D-05
          Convergence on gradient requested: 5.00D-04

              XC Information
              --------------
          PerdewBurkeErnzerhof Exchange Functional  1.000          

             Grid Information
             ----------------
          Grid used for XC integration:  medium    
          Radial quadrature: Mura-Knowles        
          Angular quadrature: Lebedev. 
          Tag              B.-S. Rad. Rad. Pts. Rad. Cut. Ang. Pts.
          ---              ---------- --------- --------- ---------
          N                   0.65       49           5.0       434
          H                   0.35       45           6.0       434
          Grid pruning is: on 
          Number of quadrature shells:    94
          Spatial weights used:  Erf1

          Convergence Information
          -----------------------
          Convergence aids based upon iterative change in 
          total energy or number of iterations. 
          Levelshifting, if invoked, occurs when the 
          HOMO/LUMO gap drops below (HL_TOL): 1.00D-02
          DIIS, if invoked, will attempt to extrapolate 
          using up to (NFOCK): 10 stored Fock matrices.

                    Damping( 0%)  Levelshifting(0.5)       DIIS
                  --------------- ------------------- ---------------
          dE  on:    start            ASAP                start   
          dE off:    2 iters         30 iters            30 iters 


      Screening Tolerance Information
      -------------------------------
          Density screening/tol_rho: 1.00D-10
          AO Gaussian exp screening on grid/accAOfunc:  14
          CD Gaussian exp screening on grid/accCDfunc:  20
          XC Gaussian exp screening on grid/accXCfunc:  20
          Schwarz screening/accCoul: 1.00D-08


 Loading old vectors from job with title :

H3N1 dft optimize


      Symmetry analysis of molecular orbitals - initial
      -------------------------------------------------

  Numbering of irreducible representations: 

     1 a1          2 a2          3 e       

  Orbital symmetries:

     1 a1          2 a1          3 e           4 e           5 a1      
     6 a1          7 e           8 e           9 a1         10 e       
    11 e          12 a1         13 e          14 e          15 a1      

   Time after variat. SCF:      0.4
   Time prior to 1st pass:      0.4

 #quartets = 7.350D+02 #integrals = 2.363D+03 #direct =  0.0% #cached =100.0%


 Integral file          = ./NH3.aoints.0
 Record size in doubles =  65536        No. of integs per rec  =  43688
 Max. records in memory =      2        Max. records in file   = 185779
 No. of bits per label  =      8        No. of bits per value  =     64


 Grid_pts file          = ./NH3.gridpts.0
 Record size in doubles =  12289        No. of grid_pts per rec  =   3070
 Max. records in memory =     16        Max. recs in file   =    990747


           Memory utilization after 1st SCF pass: 
           Heap Space remaining (MW):       32.44            32438919
          Stack Space remaining (MW):       32.77            32767788

   convergence    iter        energy       DeltaE   RMS-Dens  Diis-err    time
 ---------------- ----- ----------------- --------- --------- ---------  ------
 d= 0,ls=0.0,diis     1    -56.1365800306 -6.77D+01  9.37D-03  5.58D-03     0.5
 d= 0,ls=0.0,diis     2    -56.1365306063  4.94D-05  4.25D-03  8.80D-03     0.5
 d= 0,ls=0.0,diis     3    -56.1374668177 -9.36D-04  6.67D-04  4.68D-04     0.6
 d= 0,ls=0.0,diis     4    -56.1375172395 -5.04D-05  6.86D-05  2.60D-07     0.6
 d= 0,ls=0.0,diis     5    -56.1375172922 -5.27D-08  3.24D-06  1.01D-09     0.6


         Total DFT energy =      -56.137517292204
      One electron energy =      -98.794084826953
           Coulomb energy =       38.728381190527
    Exchange-Corr. energy =       -7.597016988406
 Nuclear repulsion energy =       11.525203332629

 Numeric. integr. density =        9.999999946582

     Total iterative time =      0.2s



                  Occupations of the irreducible representations
                  ----------------------------------------------

                     irrep           alpha         beta
                     --------     --------     --------
                     a1                3.0          3.0
                     a2                0.0          0.0
                     e                 2.0          2.0


                       DFT Final Molecular Orbital Analysis
                       ------------------------------------

 Vector    1  Occ=2.000000D+00  E=-1.395298D+01  Symmetry=a1
              MO Center=  4.5D-18,  2.1D-19,  1.0D-01, r^2= 2.0D-02
   Bfn.  Coefficient  Atom+Function         Bfn.  Coefficient  Atom+Function  
  ----- ------------  ---------------      ----- ------------  ---------------
     1      0.995029  1 N  s          

 Vector    2  Occ=2.000000D+00  E=-7.180817D-01  Symmetry=a1
              MO Center=  0.0D+00,  6.9D-18, -1.1D-01, r^2= 7.1D-01
   Bfn.  Coefficient  Atom+Function         Bfn.  Coefficient  Atom+Function  
  ----- ------------  ---------------      ----- ------------  ---------------
     6      0.428032  1 N  s                  2      0.419241  1 N  s          
     1     -0.198922  1 N  s          

 Vector    3  Occ=2.000000D+00  E=-3.642098D-01  Symmetry=e
              MO Center= -2.0D-01, -9.9D-02, -5.6D-02, r^2= 1.0D+00
   Bfn.  Coefficient  Atom+Function         Bfn.  Coefficient  Atom+Function  
  ----- ------------  ---------------      ----- ------------  ---------------
     3      0.384167  1 N  px                 4     -0.278110  1 N  py         
    14     -0.277499  4 H  s                 12      0.230528  3 H  s          
    15     -0.211188  4 H  s                 13      0.175442  3 H  s          
     7      0.172943  1 N  px         

 Vector    4  Occ=2.000000D+00  E=-3.642098D-01  Symmetry=e
              MO Center=  2.0D-01,  9.9D-02, -5.6D-02, r^2= 1.0D+00
   Bfn.  Coefficient  Atom+Function         Bfn.  Coefficient  Atom+Function  
  ----- ------------  ---------------      ----- ------------  ---------------
     4      0.384167  1 N  py                10      0.293309  2 H  s          
     3      0.278110  1 N  px                11      0.223221  2 H  s          
    12     -0.187332  3 H  s                  8      0.172943  1 N  py         

 Vector    5  Occ=2.000000D+00  E=-1.417100D-01  Symmetry=a1
              MO Center= -1.1D-16, -3.3D-17,  3.0D-01, r^2= 8.1D-01
   Bfn.  Coefficient  Atom+Function         Bfn.  Coefficient  Atom+Function  
  ----- ------------  ---------------      ----- ------------  ---------------
     5      0.554954  1 N  pz                 9      0.489794  1 N  pz         
     6      0.286332  1 N  s                  2      0.160953  1 N  s          

 Vector    6  Occ=0.000000D+00  E= 6.373984D-02  Symmetry=a1
              MO Center=  1.1D-15, -2.9D-15, -3.2D-01, r^2= 3.0D+00
   Bfn.  Coefficient  Atom+Function         Bfn.  Coefficient  Atom+Function  
  ----- ------------  ---------------      ----- ------------  ---------------
     6      1.607453  1 N  s                 11     -0.858532  2 H  s          
    13     -0.858532  3 H  s                 15     -0.858532  4 H  s          
     9     -0.389509  1 N  pz                 5     -0.203691  1 N  pz         
     2      0.190065  1 N  s          

 Vector    7  Occ=0.000000D+00  E= 1.535339D-01  Symmetry=e
              MO Center=  2.9D-01, -4.4D-01, -2.8D-01, r^2= 2.6D+00
   Bfn.  Coefficient  Atom+Function         Bfn.  Coefficient  Atom+Function  
  ----- ------------  ---------------      ----- ------------  ---------------
    13      1.513414  3 H  s                  8      0.969864  1 N  py         
    11     -0.963801  2 H  s                 15     -0.549613  4 H  s          
     4      0.445160  1 N  py         

 Vector    8  Occ=0.000000D+00  E= 1.535339D-01  Symmetry=e
              MO Center= -2.9D-01,  4.4D-01, -2.8D-01, r^2= 2.6D+00
   Bfn.  Coefficient  Atom+Function         Bfn.  Coefficient  Atom+Function  
  ----- ------------  ---------------      ----- ------------  ---------------
    15      1.430221  4 H  s                 11     -1.191089  2 H  s          
     7      0.969864  1 N  px                 3      0.445160  1 N  px         
    13     -0.239132  3 H  s          

 Vector    9  Occ=0.000000D+00  E= 7.082690D-01  Symmetry=a1
              MO Center=  0.0D+00, -4.3D-18,  3.0D-01, r^2= 1.4D+00
   Bfn.  Coefficient  Atom+Function         Bfn.  Coefficient  Atom+Function  
  ----- ------------  ---------------      ----- ------------  ---------------
     9      1.128331  1 N  pz                 5     -1.006525  1 N  pz         
     6     -0.372074  1 N  s                 11      0.227058  2 H  s          
    13      0.227058  3 H  s                 15      0.227058  4 H  s          

 Vector   10  Occ=0.000000D+00  E= 7.215095D-01  Symmetry=e
              MO Center=  7.1D-02,  9.0D-03,  1.5D-01, r^2= 1.8D+00
   Bfn.  Coefficient  Atom+Function         Bfn.  Coefficient  Atom+Function  
  ----- ------------  ---------------      ----- ------------  ---------------
     7      1.181745  1 N  px                14      0.848512  4 H  s          
     8     -0.579972  1 N  py                12     -0.568966  3 H  s          
     3     -0.378488  1 N  px                10     -0.279545  2 H  s          
     4      0.185753  1 N  py         

 Vector   11  Occ=0.000000D+00  E= 7.215095D-01  Symmetry=e
              MO Center= -7.1D-02, -9.0D-03,  1.5D-01, r^2= 1.8D+00
   Bfn.  Coefficient  Atom+Function         Bfn.  Coefficient  Atom+Function  
  ----- ------------  ---------------      ----- ------------  ---------------
     8      1.181745  1 N  py                10     -0.818381  2 H  s          
    12      0.651284  3 H  s                  7      0.579972  1 N  px         
     4     -0.378488  1 N  py                 3     -0.185753  1 N  px         
    14      0.167097  4 H  s          

 Vector   12  Occ=0.000000D+00  E= 8.465849D-01  Symmetry=a1
              MO Center=  3.4D-15, -6.0D-14, -3.6D-01, r^2= 1.7D+00
   Bfn.  Coefficient  Atom+Function         Bfn.  Coefficient  Atom+Function  
  ----- ------------  ---------------      ----- ------------  ---------------
    10      0.760874  2 H  s                 12      0.760874  3 H  s          
    14      0.760874  4 H  s                  2     -0.554935  1 N  s          
     6      0.530887  1 N  s                 11     -0.515227  2 H  s          
    13     -0.515227  3 H  s                 15     -0.515227  4 H  s          
     9      0.196621  1 N  pz         

 Vector   13  Occ=0.000000D+00  E= 8.732988D-01  Symmetry=e
              MO Center=  2.3D-01, -2.6D-01, -1.4D-01, r^2= 1.9D+00
   Bfn.  Coefficient  Atom+Function         Bfn.  Coefficient  Atom+Function  
  ----- ------------  ---------------      ----- ------------  ---------------
    13      1.419985  3 H  s                  8      1.295607  1 N  py         
    11     -0.998990  2 H  s                  4     -0.951635  1 N  py         
    12     -0.650055  3 H  s                 10      0.457328  2 H  s          
    15     -0.420995  4 H  s                 14      0.192727  4 H  s          

 Vector   14  Occ=0.000000D+00  E= 8.732988D-01  Symmetry=e
              MO Center= -2.3D-01,  2.6D-01, -1.4D-01, r^2= 1.9D+00
   Bfn.  Coefficient  Atom+Function         Bfn.  Coefficient  Atom+Function  
  ----- ------------  ---------------      ----- ------------  ---------------
    15      1.396596  4 H  s                  7      1.295607  1 N  px         
    11     -1.062891  2 H  s                  3     -0.951635  1 N  px         
    14     -0.639348  4 H  s                 10      0.486581  2 H  s          
    13     -0.333705  3 H  s                 12      0.152767  3 H  s          

 Vector   15  Occ=0.000000D+00  E= 1.223942D+00  Symmetry=a1
              MO Center=  8.0D-16,  1.4D-15, -1.4D-01, r^2= 1.6D+00
   Bfn.  Coefficient  Atom+Function         Bfn.  Coefficient  Atom+Function  
  ----- ------------  ---------------      ----- ------------  ---------------
     6      3.474183  1 N  s                  2     -1.840646  1 N  s          
    11     -0.674456  2 H  s                 13     -0.674456  3 H  s          
    15     -0.674456  4 H  s                  9     -0.625945  1 N  pz         
    10     -0.360487  2 H  s                 12     -0.360487  3 H  s          
    14     -0.360487  4 H  s          


 center of mass
 --------------
 x =   0.00000000 y =  -0.00000000 z =   0.07364856

 moments of inertia (a.u.)
 ------------------
           6.372438628299          -0.000000000000           0.000000000000
          -0.000000000000           6.372438628299          -0.000000000000
           0.000000000000          -0.000000000000          10.523378332836

     Multipole analysis of the density
     ---------------------------------

     L   x y z        total         alpha         beta         nuclear
     -   - - -        -----         -----         ----         -------
     0   0 0 0     -0.000000     -5.000000     -5.000000     10.000000

     1   1 0 0      0.000000      0.000000      0.000000      0.000000
     1   0 1 0      0.000000      0.000000      0.000000     -0.000000
     1   0 0 1     -0.774004     -0.346126     -0.346126     -0.081752

     2   2 0 0     -4.601748     -4.911292     -4.911292      5.220836
     2   1 1 0      0.000000      0.000000      0.000000      0.000000
     2   1 0 1     -0.000000     -0.000000     -0.000000      0.000000
     2   0 2 0     -4.601748     -4.911292     -4.911292      5.220836
     2   0 1 1     -0.000000     -0.000000     -0.000000      0.000000
     2   0 0 2     -6.814521     -3.876627     -3.876627      0.938732


 Parallel integral file used       1 records with       0 large values

 Line search: 
     step= 1.00 grad=-7.7D-03 hess= 2.8D-03 energy=    -56.137517 mode=downhill
 new step= 1.36                   predicted energy=    -56.137878

          --------
          Step   1
          --------


                         Geometry "geometry" -> "geometry"
                         ---------------------------------

 Output coordinates in angstroms (scale by  1.889725989 to convert to a.u.)

  No.       Tag          Charge          X              Y              Z
 ---- ---------------- ---------- -------------- -------------- --------------
    1 N                    7.0000     0.00000000     0.00000000     0.09920359
    2 H                    1.0000     0.68782779     0.68782779    -0.25104265
    3 H                    1.0000     0.25176244    -0.93959023    -0.25104265
    4 H                    1.0000    -0.93959023     0.25176244    -0.25104265

      Atomic Mass 
      ----------- 

      N                 14.003070
      H                  1.007825


 Effective nuclear repulsion energy (a.u.)      11.6909200293

            Nuclear Dipole moment (a.u.) 
            ----------------------------
        X                 Y               Z
 ---------------- ---------------- ----------------
    -0.0000000000    -0.0000000000    -0.1109322087

      Symmetry information
      --------------------

 Group name             C3v       
 Group number             17
 Group order               6
 No. of unique centers     2

      Symmetry unique atoms

     1    2


                                 NWChem DFT Module
                                 -----------------


                                 H3N1 dft optimize


  Caching 1-el integrals 
  Rotation of axis 

            General Information
            -------------------
          SCF calculation type: DFT
          Wavefunction type:  closed shell.
          No. of atoms     :     4
          No. of electrons :    10
           Alpha electrons :     5
            Beta electrons :     5
          Charge           :     0
          Spin multiplicity:     1
          Use of symmetry is: on ; symmetry adaption is: on 
          Maximum number of iterations:  30
          AO basis - number of functions:    15
                     number of shells:    11
          Convergence on energy requested: 1.00D-06
          Convergence on density requested: 1.00D-05
          Convergence on gradient requested: 5.00D-04

              XC Information
              --------------
          PerdewBurkeErnzerhof Exchange Functional  1.000          

             Grid Information
             ----------------
          Grid used for XC integration:  medium    
          Radial quadrature: Mura-Knowles        
          Angular quadrature: Lebedev. 
          Tag              B.-S. Rad. Rad. Pts. Rad. Cut. Ang. Pts.
          ---              ---------- --------- --------- ---------
          N                   0.65       49           5.0       434
          H                   0.35       45           6.0       434
          Grid pruning is: on 
          Number of quadrature shells:    94
          Spatial weights used:  Erf1

          Convergence Information
          -----------------------
          Convergence aids based upon iterative change in 
          total energy or number of iterations. 
          Levelshifting, if invoked, occurs when the 
          HOMO/LUMO gap drops below (HL_TOL): 1.00D-02
          DIIS, if invoked, will attempt to extrapolate 
          using up to (NFOCK): 10 stored Fock matrices.

                    Damping( 0%)  Levelshifting(0.5)       DIIS
                  --------------- ------------------- ---------------
          dE  on:    start            ASAP                start   
          dE off:    2 iters         30 iters            30 iters 


      Screening Tolerance Information
      -------------------------------
          Density screening/tol_rho: 1.00D-10
          AO Gaussian exp screening on grid/accAOfunc:  14
          CD Gaussian exp screening on grid/accCDfunc:  20
          XC Gaussian exp screening on grid/accXCfunc:  20
          Schwarz screening/accCoul: 1.00D-08


 Loading old vectors from job with title :

H3N1 dft optimize


      Symmetry analysis of molecular orbitals - initial
      -------------------------------------------------

  Numbering of irreducible representations: 

     1 a1          2 a2          3 e       

  Orbital symmetries:

     1 a1          2 a1          3 e           4 e           5 a1      
     6 a1          7 e           8 e           9 a1         10 e       
    11 e          12 a1         13 e          14 e          15 a1      

   Time after variat. SCF:      0.6
   Time prior to 1st pass:      0.6

 #quartets = 7.350D+02 #integrals = 2.363D+03 #direct =  0.0% #cached =100.0%


 Integral file          = ./NH3.aoints.0
 Record size in doubles =  65536        No. of integs per rec  =  43688
 Max. records in memory =      2        Max. records in file   = 185779
 No. of bits per label  =      8        No. of bits per value  =     64


 Grid_pts file          = ./NH3.gridpts.0
 Record size in doubles =  12289        No. of grid_pts per rec  =   3070
 Max. records in memory =     16        Max. recs in file   =    990747


           Memory utilization after 1st SCF pass: 
           Heap Space remaining (MW):       32.44            32438919
          Stack Space remaining (MW):       32.77            32767788

   convergence    iter        energy       DeltaE   RMS-Dens  Diis-err    time
 ---------------- ----- ----------------- --------- --------- ---------  ------
 d= 0,ls=0.0,diis     1    -56.1375595508 -6.78D+01  3.36D-03  7.71D-04     0.7
 d= 0,ls=0.0,diis     2    -56.1375545604  4.99D-06  1.54D-03  1.17D-03     0.8
 d= 0,ls=0.0,diis     3    -56.1376778118 -1.23D-04  2.48D-04  6.39D-05     0.8
 d= 0,ls=0.0,diis     4    -56.1376846590 -6.85D-06  2.53D-05  3.75D-08     0.8
 d= 0,ls=0.0,diis     5    -56.1376846664 -7.33D-09  1.14D-06  1.19D-10     0.9


         Total DFT energy =      -56.137684666363
      One electron energy =      -99.097393397407
           Coulomb energy =       38.882443685286
    Exchange-Corr. energy =       -7.613654983529
 Nuclear repulsion energy =       11.690920029287

 Numeric. integr. density =        9.999999803437

     Total iterative time =      0.2s



                  Occupations of the irreducible representations
                  ----------------------------------------------

                     irrep           alpha         beta
                     --------     --------     --------
                     a1                3.0          3.0
                     a2                0.0          0.0
                     e                 2.0          2.0


                       DFT Final Molecular Orbital Analysis
                       ------------------------------------

 Vector    1  Occ=2.000000D+00  E=-1.394900D+01  Symmetry=a1
              MO Center=  3.4D-21,  7.2D-21,  9.9D-02, r^2= 2.0D-02
   Bfn.  Coefficient  Atom+Function         Bfn.  Coefficient  Atom+Function  
  ----- ------------  ---------------      ----- ------------  ---------------
     1      0.995020  1 N  s          

 Vector    2  Occ=2.000000D+00  E=-7.236539D-01  Symmetry=a1
              MO Center= -5.1D-17, -2.0D-17, -1.1D-01, r^2= 7.0D-01
   Bfn.  Coefficient  Atom+Function         Bfn.  Coefficient  Atom+Function  
  ----- ------------  ---------------      ----- ------------  ---------------
     6      0.422284  1 N  s                  2      0.418949  1 N  s          
     1     -0.198869  1 N  s          

 Vector    3  Occ=2.000000D+00  E=-3.676346D-01  Symmetry=e
              MO Center=  1.1D-01,  1.8D-01, -5.6D-02, r^2= 1.0D+00
   Bfn.  Coefficient  Atom+Function         Bfn.  Coefficient  Atom+Function  
  ----- ------------  ---------------      ----- ------------  ---------------
     3      0.375236  1 N  px                10      0.296352  2 H  s          
     4      0.293793  1 N  py                11      0.221796  2 H  s          
    14     -0.179419  4 H  s                  7      0.166333  1 N  px         

 Vector    4  Occ=2.000000D+00  E=-3.676346D-01  Symmetry=e
              MO Center= -1.1D-01, -1.8D-01, -5.6D-02, r^2= 1.0D+00
   Bfn.  Coefficient  Atom+Function         Bfn.  Coefficient  Atom+Function  
  ----- ------------  ---------------      ----- ------------  ---------------
     4      0.375236  1 N  py                 3     -0.293793  1 N  px         
    12     -0.274687  3 H  s                 14      0.238611  4 H  s          
    13     -0.205581  3 H  s                 15      0.178581  4 H  s          
     8      0.166333  1 N  py         

 Vector    5  Occ=2.000000D+00  E=-1.418840D-01  Symmetry=a1
              MO Center= -2.6D-18, -1.1D-19,  3.0D-01, r^2= 8.0D-01
   Bfn.  Coefficient  Atom+Function         Bfn.  Coefficient  Atom+Function  
  ----- ------------  ---------------      ----- ------------  ---------------
     5      0.555497  1 N  pz                 9      0.492285  1 N  pz         
     6      0.280260  1 N  s                  2      0.160747  1 N  s          

 Vector    6  Occ=0.000000D+00  E= 6.811021D-02  Symmetry=a1
              MO Center= -4.3D-15, -2.6D-15, -3.3D-01, r^2= 3.0D+00
   Bfn.  Coefficient  Atom+Function         Bfn.  Coefficient  Atom+Function  
  ----- ------------  ---------------      ----- ------------  ---------------
     6      1.650560  1 N  s                 11     -0.873724  2 H  s          
    13     -0.873724  3 H  s                 15     -0.873724  4 H  s          
     9     -0.390417  1 N  pz                 5     -0.198352  1 N  pz         
     2      0.187464  1 N  s          

 Vector    7  Occ=0.000000D+00  E= 1.582735D-01  Symmetry=e
              MO Center= -2.6D-01, -4.7D-01, -2.9D-01, r^2= 2.6D+00
   Bfn.  Coefficient  Atom+Function         Bfn.  Coefficient  Atom+Function  
  ----- ------------  ---------------      ----- ------------  ---------------
    13      1.457156  3 H  s                 15     -1.243466  4 H  s          
     8      0.788472  1 N  py                 7     -0.598400  1 N  px         
     4      0.352708  1 N  py                 3     -0.267683  1 N  px         
    11     -0.213690  2 H  s          

 Vector    8  Occ=0.000000D+00  E= 1.582735D-01  Symmetry=e
              MO Center=  2.6D-01,  4.7D-01, -2.9D-01, r^2= 2.6D+00
   Bfn.  Coefficient  Atom+Function         Bfn.  Coefficient  Atom+Function  
  ----- ------------  ---------------      ----- ------------  ---------------
    11      1.559205  2 H  s                 15     -0.964663  4 H  s          
     7     -0.788472  1 N  px                 8     -0.598400  1 N  py         
    13     -0.594541  3 H  s                  3     -0.352708  1 N  px         
     4     -0.267683  1 N  py         

 Vector    9  Occ=0.000000D+00  E= 7.088820D-01  Symmetry=a1
              MO Center=  8.7D-18, -1.1D-17,  2.9D-01, r^2= 1.4D+00
   Bfn.  Coefficient  Atom+Function         Bfn.  Coefficient  Atom+Function  
  ----- ------------  ---------------      ----- ------------  ---------------
     9      1.135853  1 N  pz                 5     -1.004578  1 N  pz         
     6     -0.379478  1 N  s                 11      0.218764  2 H  s          
    13      0.218764  3 H  s                 15      0.218764  4 H  s          

 Vector   10  Occ=0.000000D+00  E= 7.163375D-01  Symmetry=e
              MO Center=  3.5D-02,  8.1D-02,  1.6D-01, r^2= 1.8D+00
   Bfn.  Coefficient  Atom+Function         Bfn.  Coefficient  Atom+Function  
  ----- ------------  ---------------      ----- ------------  ---------------
     8      1.125233  1 N  py                12      0.804676  3 H  s          
     7     -0.764945  1 N  px                14     -0.645127  4 H  s          
     4     -0.352796  1 N  py                 3      0.239834  1 N  px         
    10     -0.159549  2 H  s          

 Vector   11  Occ=0.000000D+00  E= 7.163375D-01  Symmetry=e
              MO Center= -3.5D-02, -8.1D-02,  1.6D-01, r^2= 1.8D+00
   Bfn.  Coefficient  Atom+Function         Bfn.  Coefficient  Atom+Function  
  ----- ------------  ---------------      ----- ------------  ---------------
     7      1.125233  1 N  px                10     -0.837044  2 H  s          
     8      0.764945  1 N  py                14      0.556695  4 H  s          
     3     -0.352796  1 N  px                12      0.280348  3 H  s          
     4     -0.239834  1 N  py         

 Vector   12  Occ=0.000000D+00  E= 8.647492D-01  Symmetry=a1
              MO Center=  9.0D-17, -3.2D-16, -3.5D-01, r^2= 1.6D+00
   Bfn.  Coefficient  Atom+Function         Bfn.  Coefficient  Atom+Function  
  ----- ------------  ---------------      ----- ------------  ---------------
    10      0.768255  2 H  s                 12      0.768255  3 H  s          
    14      0.768255  4 H  s                  2     -0.566737  1 N  s          
     6      0.502428  1 N  s                 11     -0.504843  2 H  s          
    13     -0.504843  3 H  s                 15     -0.504843  4 H  s          
     9      0.179812  1 N  pz         

 Vector   13  Occ=0.000000D+00  E= 8.849654D-01  Symmetry=e
              MO Center=  3.4D-01, -5.0D-02, -1.5D-01, r^2= 1.8D+00
   Bfn.  Coefficient  Atom+Function         Bfn.  Coefficient  Atom+Function  
  ----- ------------  ---------------      ----- ------------  ---------------
    11     -1.314344  2 H  s                 13      1.229397  3 H  s          
     8      1.210323  1 N  py                 4     -0.905939  1 N  py         
    10      0.615040  2 H  s                 12     -0.575289  3 H  s          
     7      0.400519  1 N  px                 3     -0.299793  1 N  px         

 Vector   14  Occ=0.000000D+00  E= 8.849654D-01  Symmetry=e
              MO Center= -3.4D-01,  5.0D-02, -1.5D-01, r^2= 1.8D+00
   Bfn.  Coefficient  Atom+Function         Bfn.  Coefficient  Atom+Function  
  ----- ------------  ---------------      ----- ------------  ---------------
    15      1.468629  4 H  s                  7      1.210323  1 N  px         
     3     -0.905939  1 N  px                13     -0.807882  3 H  s          
    14     -0.687237  4 H  s                 11     -0.660748  2 H  s          
     8     -0.400519  1 N  py                12      0.378044  3 H  s          
    10      0.309193  2 H  s                  4      0.299793  1 N  py         

 Vector   15  Occ=0.000000D+00  E= 1.227016D+00  Symmetry=a1
              MO Center=  3.5D-17,  6.5D-16, -1.4D-01, r^2= 1.6D+00
   Bfn.  Coefficient  Atom+Function         Bfn.  Coefficient  Atom+Function  
  ----- ------------  ---------------      ----- ------------  ---------------
     6      3.550833  1 N  s                  2     -1.843493  1 N  s          
    11     -0.696610  2 H  s                 13     -0.696610  3 H  s          
    15     -0.696610  4 H  s                  9     -0.638021  1 N  pz         
    10     -0.365689  2 H  s                 12     -0.365689  3 H  s          
    14     -0.365689  4 H  s          


 center of mass
 --------------
 x =  -0.00000000 y =  -0.00000000 z =   0.06993668

 moments of inertia (a.u.)
 ------------------
           6.197448856277           0.000000000000          -0.000000000000
           0.000000000000           6.197448856277          -0.000000000000
          -0.000000000000          -0.000000000000          10.216296391412

     Multipole analysis of the density
     ---------------------------------

     L   x y z        total         alpha         beta         nuclear
     -   - - -        -----         -----         ----         -------
     0   0 0 0     -0.000000     -5.000000     -5.000000     10.000000

     1   1 0 0     -0.000000     -0.000000     -0.000000     -0.000000
     1   0 1 0      0.000000      0.000000      0.000000     -0.000000
     1   0 0 1     -0.779550     -0.334309     -0.334309     -0.110932

     2   2 0 0     -4.598236     -4.833361     -4.833361      5.068487
     2   1 1 0      0.000000      0.000000      0.000000     -0.000000
     2   1 0 1      0.000000      0.000000      0.000000      0.000000
     2   0 2 0     -4.598236     -4.833361     -4.833361      5.068487
     2   0 1 1     -0.000000     -0.000000     -0.000000      0.000000
     2   0 0 2     -6.778376     -3.849778     -3.849778      0.921180


 Parallel integral file used       1 records with       0 large values



                            NWChem DFT Gradient Module
                            --------------------------


                                 H3N1 dft optimize



  charge          =   0.00
  wavefunction    = closed shell

  Rotation of axis 
  Using symmetry


                         DFT ENERGY GRADIENTS

    atom               coordinates                        gradient
                 x          y          z           x          y          z
   1 N       0.000000   0.000000   0.187468    0.000000   0.000000   0.002211
   2 H       1.299806   1.299806  -0.474402   -0.002696  -0.002696  -0.000737
   3 H       0.475762  -1.775568  -0.474402   -0.000987   0.003683  -0.000737
   4 H      -1.775568   0.475762  -0.474402    0.003683  -0.000987  -0.000737

                 ----------------------------------------
                 |  Time  |  1-e(secs)   |  2-e(secs)   |
                 ----------------------------------------
                 |  CPU   |       0.00   |       0.01   |
                 ----------------------------------------
                 |  WALL  |       0.00   |       0.02   |
                 ----------------------------------------

  Step       Energy      Delta E   Gmax     Grms     Xrms     Xmax   Walltime
  ---- ---------------- -------- -------- -------- -------- -------- --------
@    1     -56.13768467 -5.0D-03  0.00368  0.00204  0.05249  0.10070      1.1
                                                                    


                                 NWChem DFT Module
                                 -----------------


                                 H3N1 dft optimize


  Caching 1-el integrals 
  Rotation of axis 

            General Information
            -------------------
          SCF calculation type: DFT
          Wavefunction type:  closed shell.
          No. of atoms     :     4
          No. of electrons :    10
           Alpha electrons :     5
            Beta electrons :     5
          Charge           :     0
          Spin multiplicity:     1
          Use of symmetry is: on ; symmetry adaption is: on 
          Maximum number of iterations:  30
          AO basis - number of functions:    15
                     number of shells:    11
          Convergence on energy requested: 1.00D-06
          Convergence on density requested: 1.00D-05
          Convergence on gradient requested: 5.00D-04

              XC Information
              --------------
          PerdewBurkeErnzerhof Exchange Functional  1.000          

             Grid Information
             ----------------
          Grid used for XC integration:  medium    
          Radial quadrature: Mura-Knowles        
          Angular quadrature: Lebedev. 
          Tag              B.-S. Rad. Rad. Pts. Rad. Cut. Ang. Pts.
          ---              ---------- --------- --------- ---------
          N                   0.65       49           5.0       434
          H                   0.35       45           6.0       434
          Grid pruning is: on 
          Number of quadrature shells:    94
          Spatial weights used:  Erf1

          Convergence Information
          -----------------------
          Convergence aids based upon iterative change in 
          total energy or number of iterations. 
          Levelshifting, if invoked, occurs when the 
          HOMO/LUMO gap drops below (HL_TOL): 1.00D-02
          DIIS, if invoked, will attempt to extrapolate 
          using up to (NFOCK): 10 stored Fock matrices.

                    Damping( 0%)  Levelshifting(0.5)       DIIS
                  --------------- ------------------- ---------------
          dE  on:    start            ASAP                start   
          dE off:    2 iters         30 iters            30 iters 


      Screening Tolerance Information
      -------------------------------
          Density screening/tol_rho: 1.00D-10
          AO Gaussian exp screening on grid/accAOfunc:  14
          CD Gaussian exp screening on grid/accCDfunc:  20
          XC Gaussian exp screening on grid/accXCfunc:  20
          Schwarz screening/accCoul: 1.00D-08


 Loading old vectors from job with title :

H3N1 dft optimize


      Symmetry analysis of molecular orbitals - initial
      -------------------------------------------------

  Numbering of irreducible representations: 

     1 a1          2 a2          3 e       

  Orbital symmetries:

     1 a1          2 a1          3 e           4 e           5 a1      
     6 a1          7 e           8 e           9 a1         10 e       
    11 e          12 a1         13 e          14 e          15 a1      

   Time after variat. SCF:      0.9
   Time prior to 1st pass:      0.9

 #quartets = 7.350D+02 #integrals = 2.363D+03 #direct =  0.0% #cached =100.0%


 Integral file          = ./NH3.aoints.0
 Record size in doubles =  65536        No. of integs per rec  =  43688
 Max. records in memory =      2        Max. records in file   = 185779
 No. of bits per label  =      8        No. of bits per value  =     64


 Grid_pts file          = ./NH3.gridpts.0
 Record size in doubles =  12289        No. of grid_pts per rec  =   3070
 Max. records in memory =     16        Max. recs in file   =    990747


           Memory utilization after 1st SCF pass: 
           Heap Space remaining (MW):       32.44            32438919
          Stack Space remaining (MW):       32.77            32767788

   convergence    iter        energy       DeltaE   RMS-Dens  Diis-err    time
 ---------------- ----- ----------------- --------- --------- ---------  ------
 d= 0,ls=0.0,diis     1    -56.1377819902 -6.78D+01  2.79D-03  3.11D-04     1.0
 d= 0,ls=0.0,diis     2    -56.1378633504 -8.14D-05  3.57D-04  4.31D-06     1.1
 d= 0,ls=0.0,diis     3    -56.1378642413 -8.91D-07  5.80D-05  5.43D-07     1.1
 d= 0,ls=0.0,diis     4    -56.1378642656 -2.42D-08  2.61D-05  4.55D-07     1.1
 d= 0,ls=0.0,diis     5    -56.1378643154 -4.99D-08  9.93D-07  2.73D-10     1.2


         Total DFT energy =      -56.137864315428
      One electron energy =      -99.039683062456
           Coulomb energy =       38.859215878820
    Exchange-Corr. energy =       -7.609943694166
 Nuclear repulsion energy =       11.652546562375

 Numeric. integr. density =        9.999999721008

     Total iterative time =      0.2s



                  Occupations of the irreducible representations
                  ----------------------------------------------

                     irrep           alpha         beta
                     --------     --------     --------
                     a1                3.0          3.0
                     a2                0.0          0.0
                     e                 2.0          2.0


                       DFT Final Molecular Orbital Analysis
                       ------------------------------------

 Vector    1  Occ=2.000000D+00  E=-1.394817D+01  Symmetry=a1
              MO Center=  2.1D-18, -4.4D-18,  8.5D-02, r^2= 2.0D-02
   Bfn.  Coefficient  Atom+Function         Bfn.  Coefficient  Atom+Function  
  ----- ------------  ---------------      ----- ------------  ---------------
     1      0.995019  1 N  s          

 Vector    2  Occ=2.000000D+00  E=-7.192738D-01  Symmetry=a1
              MO Center= -3.6D-17,  7.3D-17, -1.2D-01, r^2= 7.1D-01
   Bfn.  Coefficient  Atom+Function         Bfn.  Coefficient  Atom+Function  
  ----- ------------  ---------------      ----- ------------  ---------------
     6      0.423371  1 N  s                  2      0.420256  1 N  s          
     1     -0.199353  1 N  s          

 Vector    3  Occ=2.000000D+00  E=-3.674852D-01  Symmetry=e
              MO Center= -1.1D-01,  1.9D-01, -6.2D-02, r^2= 1.0D+00
   Bfn.  Coefficient  Atom+Function         Bfn.  Coefficient  Atom+Function  
  ----- ------------  ---------------      ----- ------------  ---------------
     3      0.471562  1 N  px                14     -0.275039  4 H  s          
    10      0.236592  2 H  s                  7      0.210427  1 N  px         
    15     -0.204644  4 H  s                 11      0.176037  2 H  s          

 Vector    4  Occ=2.000000D+00  E=-3.674852D-01  Symmetry=e
              MO Center=  1.1D-01, -1.9D-01, -6.2D-02, r^2= 1.0D+00
   Bfn.  Coefficient  Atom+Function         Bfn.  Coefficient  Atom+Function  
  ----- ------------  ---------------      ----- ------------  ---------------
     4      0.471562  1 N  py                12     -0.295390  3 H  s          
    13     -0.219786  3 H  s                  8      0.210427  1 N  py         
    10      0.180992  2 H  s          

 Vector    5  Occ=2.000000D+00  E=-1.394008D-01  Symmetry=a1
              MO Center=  4.1D-18,  9.1D-17,  2.8D-01, r^2= 8.1D-01
   Bfn.  Coefficient  Atom+Function         Bfn.  Coefficient  Atom+Function  
  ----- ------------  ---------------      ----- ------------  ---------------
     5      0.559724  1 N  pz                 9      0.498178  1 N  pz         
     6      0.264796  1 N  s                  2      0.153478  1 N  s          

 Vector    6  Occ=0.000000D+00  E= 6.802752D-02  Symmetry=a1
              MO Center= -1.1D-15, -4.4D-15, -3.2D-01, r^2= 3.1D+00
   Bfn.  Coefficient  Atom+Function         Bfn.  Coefficient  Atom+Function  
  ----- ------------  ---------------      ----- ------------  ---------------
     6      1.645793  1 N  s                 11     -0.870366  2 H  s          
    13     -0.870366  3 H  s                 15     -0.870366  4 H  s          
     9     -0.369496  1 N  pz                 2      0.191583  1 N  s          
     5     -0.189686  1 N  pz         

 Vector    7  Occ=0.000000D+00  E= 1.581115D-01  Symmetry=e
              MO Center= -4.5D-01, -2.9D-01, -2.8D-01, r^2= 2.6D+00
   Bfn.  Coefficient  Atom+Function         Bfn.  Coefficient  Atom+Function  
  ----- ------------  ---------------      ----- ------------  ---------------
    15      1.433800  4 H  s                 13     -1.269235  3 H  s          
     7      0.772859  1 N  px                 8     -0.625411  1 N  py         
     3      0.343789  1 N  px                 4     -0.278200  1 N  py         
    11     -0.164565  2 H  s          

 Vector    8  Occ=0.000000D+00  E= 1.581115D-01  Symmetry=e
              MO Center=  4.5D-01,  2.9D-01, -2.8D-01, r^2= 2.6D+00
   Bfn.  Coefficient  Atom+Function         Bfn.  Coefficient  Atom+Function  
  ----- ------------  ---------------      ----- ------------  ---------------
    11      1.560598  2 H  s                 13     -0.922817  3 H  s          
     8     -0.772859  1 N  py                15     -0.637781  4 H  s          
     7     -0.625411  1 N  px                 4     -0.343789  1 N  py         
     3     -0.278200  1 N  px         

 Vector    9  Occ=0.000000D+00  E= 7.084629D-01  Symmetry=a1
              MO Center=  3.6D-16, -2.5D-15,  2.7D-01, r^2= 1.4D+00
   Bfn.  Coefficient  Atom+Function         Bfn.  Coefficient  Atom+Function  
  ----- ------------  ---------------      ----- ------------  ---------------
     9      1.126297  1 N  pz                 5     -1.004418  1 N  pz         
     6     -0.363289  1 N  s                 11      0.207334  2 H  s          
    13      0.207334  3 H  s                 15      0.207334  4 H  s          

 Vector   10  Occ=0.000000D+00  E= 7.215283D-01  Symmetry=e
              MO Center=  4.2D-02,  8.8D-02,  1.5D-01, r^2= 1.8D+00
   Bfn.  Coefficient  Atom+Function         Bfn.  Coefficient  Atom+Function  
  ----- ------------  ---------------      ----- ------------  ---------------
     8      1.126447  1 N  py                12      0.799742  3 H  s          
     7     -0.794491  1 N  px                14     -0.654637  4 H  s          
     4     -0.354116  1 N  py                 3      0.249761  1 N  px         

 Vector   11  Occ=0.000000D+00  E= 7.215283D-01  Symmetry=e
              MO Center= -4.2D-02, -8.8D-02,  1.5D-01, r^2= 1.8D+00
   Bfn.  Coefficient  Atom+Function         Bfn.  Coefficient  Atom+Function  
  ----- ------------  ---------------      ----- ------------  ---------------
     7      1.126447  1 N  px                10     -0.839686  2 H  s          
     8      0.794491  1 N  py                14      0.545508  4 H  s          
     3     -0.354116  1 N  px                12      0.294178  3 H  s          
     4     -0.249761  1 N  py         

 Vector   12  Occ=0.000000D+00  E= 8.527159D-01  Symmetry=a1
              MO Center=  1.0D-14,  8.4D-15, -3.5D-01, r^2= 1.7D+00
   Bfn.  Coefficient  Atom+Function         Bfn.  Coefficient  Atom+Function  
  ----- ------------  ---------------      ----- ------------  ---------------
    10      0.772369  2 H  s                 12      0.772369  3 H  s          
    14      0.772369  4 H  s                  2     -0.515237  1 N  s          
    11     -0.499437  2 H  s                 13     -0.499437  3 H  s          
    15     -0.499437  4 H  s                  6      0.437209  1 N  s          
     9      0.175737  1 N  pz         

 Vector   13  Occ=0.000000D+00  E= 8.840585D-01  Symmetry=e
              MO Center= -1.3D-01, -3.3D-01, -1.5D-01, r^2= 1.8D+00
   Bfn.  Coefficient  Atom+Function         Bfn.  Coefficient  Atom+Function  
  ----- ------------  ---------------      ----- ------------  ---------------
    13      1.392524  3 H  s                 15     -1.089658  4 H  s          
     8      1.063404  1 N  py                 4     -0.797930  1 N  py         
     7     -0.692347  1 N  px                12     -0.657256  3 H  s          
     3      0.519506  1 N  px                14      0.514307  4 H  s          
    11     -0.302866  2 H  s          

 Vector   14  Occ=0.000000D+00  E= 8.840585D-01  Symmetry=e
              MO Center=  1.3D-01,  3.3D-01, -1.5D-01, r^2= 1.8D+00
   Bfn.  Coefficient  Atom+Function         Bfn.  Coefficient  Atom+Function  
  ----- ------------  ---------------      ----- ------------  ---------------
    11      1.433089  2 H  s                  7     -1.063404  1 N  px         
    15     -0.978834  4 H  s                  3      0.797930  1 N  px         
     8     -0.692347  1 N  py                10     -0.676402  2 H  s          
     4      0.519506  1 N  py                14      0.461999  4 H  s          
    13     -0.454255  3 H  s                 12      0.214403  3 H  s          

 Vector   15  Occ=0.000000D+00  E= 1.217425D+00  Symmetry=a1
              MO Center=  2.6D-16, -5.3D-16, -1.3D-01, r^2= 1.6D+00
   Bfn.  Coefficient  Atom+Function         Bfn.  Coefficient  Atom+Function  
  ----- ------------  ---------------      ----- ------------  ---------------
     6      3.519639  1 N  s                  2     -1.852458  1 N  s          
    11     -0.698615  2 H  s                 13     -0.698615  3 H  s          
    15     -0.698615  4 H  s                  9     -0.585486  1 N  pz         
    10     -0.334163  2 H  s                 12     -0.334163  3 H  s          
    14     -0.334163  4 H  s          


 center of mass
 --------------
 x =  -0.00000000 y =  -0.00000000 z =   0.05020965

 moments of inertia (a.u.)
 ------------------
           6.185817409378           0.000000000000          -0.000000000000
           0.000000000000           6.185817409378          -0.000000000000
          -0.000000000000          -0.000000000000          10.413997564843

     Multipole analysis of the density
     ---------------------------------

     L   x y z        total         alpha         beta         nuclear
     -   - - -        -----         -----         ----         -------
     0   0 0 0     -0.000000     -5.000000     -5.000000     10.000000

     1   1 0 0      0.000000      0.000000      0.000000      0.000000
     1   0 1 0     -0.000000     -0.000000     -0.000000     -0.000000
     1   0 0 1     -0.749256     -0.241622     -0.241622     -0.266012

     2   2 0 0     -4.557368     -4.861969     -4.861969      5.166570
     2   1 1 0      0.000000      0.000000      0.000000      0.000000
     2   1 0 1     -0.000000     -0.000000     -0.000000      0.000000
     2   0 2 0     -4.557368     -4.861969     -4.861969      5.166570
     2   0 1 1      0.000000      0.000000      0.000000      0.000000
     2   0 0 2     -6.786053     -3.809886     -3.809886      0.833720


 Parallel integral file used       1 records with       0 large values

 Line search: 
     step= 1.00 grad=-2.8D-04 hess= 9.9D-05 energy=    -56.137864 mode=downhill
 new step= 1.41                   predicted energy=    -56.137881

          --------
          Step   2
          --------


                         Geometry "geometry" -> "geometry"
                         ---------------------------------

 Output coordinates in angstroms (scale by  1.889725989 to convert to a.u.)

  No.       Tag          Charge          X              Y              Z
 ---- ---------------- ---------- -------------- -------------- --------------
    1 N                    7.0000     0.00000000     0.00000000     0.07995746
    2 H                    1.0000     0.69714784     0.69714784    -0.24462728
    3 H                    1.0000     0.25517382    -0.95232165    -0.24462728
    4 H                    1.0000    -0.95232165     0.25517382    -0.24462728

      Atomic Mass 
      ----------- 

      N                 14.003070
      H                  1.007825


 Effective nuclear repulsion energy (a.u.)      11.6358441543

            Nuclear Dipole moment (a.u.) 
            ----------------------------
        X                 Y               Z
 ---------------- ---------------- ----------------
     0.0000000000     0.0000000000    -0.3291516904

      Symmetry information
      --------------------

 Group name             C3v       
 Group number             17
 Group order               6
 No. of unique centers     2

      Symmetry unique atoms

     1    2


                                 NWChem DFT Module
                                 -----------------


                                 H3N1 dft optimize


  Caching 1-el integrals 
  Rotation of axis 

            General Information
            -------------------
          SCF calculation type: DFT
          Wavefunction type:  closed shell.
          No. of atoms     :     4
          No. of electrons :    10
           Alpha electrons :     5
            Beta electrons :     5
          Charge           :     0
          Spin multiplicity:     1
          Use of symmetry is: on ; symmetry adaption is: on 
          Maximum number of iterations:  30
          AO basis - number of functions:    15
                     number of shells:    11
          Convergence on energy requested: 1.00D-06
          Convergence on density requested: 1.00D-05
          Convergence on gradient requested: 5.00D-04

              XC Information
              --------------
          PerdewBurkeErnzerhof Exchange Functional  1.000          

             Grid Information
             ----------------
          Grid used for XC integration:  medium    
          Radial quadrature: Mura-Knowles        
          Angular quadrature: Lebedev. 
          Tag              B.-S. Rad. Rad. Pts. Rad. Cut. Ang. Pts.
          ---              ---------- --------- --------- ---------
          N                   0.65       49           5.0       434
          H                   0.35       45           6.0       434
          Grid pruning is: on 
          Number of quadrature shells:    94
          Spatial weights used:  Erf1

          Convergence Information
          -----------------------
          Convergence aids based upon iterative change in 
          total energy or number of iterations. 
          Levelshifting, if invoked, occurs when the 
          HOMO/LUMO gap drops below (HL_TOL): 1.00D-02
          DIIS, if invoked, will attempt to extrapolate 
          using up to (NFOCK): 10 stored Fock matrices.

                    Damping( 0%)  Levelshifting(0.5)       DIIS
                  --------------- ------------------- ---------------
          dE  on:    start            ASAP                start   
          dE off:    2 iters         30 iters            30 iters 


      Screening Tolerance Information
      -------------------------------
          Density screening/tol_rho: 1.00D-10
          AO Gaussian exp screening on grid/accAOfunc:  14
          CD Gaussian exp screening on grid/accCDfunc:  20
          XC Gaussian exp screening on grid/accXCfunc:  20
          Schwarz screening/accCoul: 1.00D-08


 Loading old vectors from job with title :

H3N1 dft optimize


      Symmetry analysis of molecular orbitals - initial
      -------------------------------------------------

  Numbering of irreducible representations: 

     1 a1          2 a2          3 e       

  Orbital symmetries:

     1 a1          2 a1          3 e           4 e           5 a1      
     6 a1          7 e           8 e           9 a1         10 e       
    11 e          12 a1         13 e          14 e          15 a1      

   Time after variat. SCF:      1.2
   Time prior to 1st pass:      1.2

 #quartets = 7.350D+02 #integrals = 2.363D+03 #direct =  0.0% #cached =100.0%


 Integral file          = ./NH3.aoints.0
 Record size in doubles =  65536        No. of integs per rec  =  43688
 Max. records in memory =      2        Max. records in file   = 185779
 No. of bits per label  =      8        No. of bits per value  =     64


 Grid_pts file          = ./NH3.gridpts.0
 Record size in doubles =  12289        No. of grid_pts per rec  =   3070
 Max. records in memory =     16        Max. recs in file   =    990747


           Memory utilization after 1st SCF pass: 
[...]

  8 S  6.39000000E-02  1.000000

  9 P  6.39000000E-02  1.000000

 10 D  9.13000000E-01  1.000000



 Summary of "ao basis" -> "" (cartesian)
 ------------------------------------------------------------------------------
       Tag                 Description            Shells   Functions and Types
 ---------------- ------------------------------  ------  ---------------------
 H                          6-311+G*                 3        3   3s
 N                          6-311+G*                10       23   5s4p1d



                                 NWChem DFT Module
                                 -----------------


                                  H3N1 dft energy


  Caching 1-el integrals 
  Rotation of axis 
  itol2e modified to match energy
  convergence criterion.

            General Information
            -------------------
          SCF calculation type: DFT
          Wavefunction type:  closed shell.
          No. of atoms     :     4
          No. of electrons :    10
           Alpha electrons :     5
            Beta electrons :     5
          Charge           :     0
          Spin multiplicity:     1
          Use of symmetry is: on ; symmetry adaption is: on 
          Maximum number of iterations:  30
          AO basis - number of functions:    32
                     number of shells:    19
          Convergence on energy requested: 1.00D-07
          Convergence on density requested: 1.00D-05
          Convergence on gradient requested: 5.00D-04

              XC Information
              --------------
          PerdewBurkeErnzerhof Exchange Functional  1.000          

             Grid Information
             ----------------
          Grid used for XC integration:  fine      
          Radial quadrature: Mura-Knowles        
          Angular quadrature: Lebedev. 
          Tag              B.-S. Rad. Rad. Pts. Rad. Cut. Ang. Pts.
          ---              ---------- --------- --------- ---------
          N                   0.65       70           7.0       590
          H                   0.35       60           8.0       590
          Grid pruning is: on 
          Number of quadrature shells:   130
          Spatial weights used:  Erf1

          Convergence Information
          -----------------------
          Convergence aids based upon iterative change in 
          total energy or number of iterations. 
          Levelshifting, if invoked, occurs when the 
          HOMO/LUMO gap drops below (HL_TOL): 1.00D-02
          DIIS, if invoked, will attempt to extrapolate 
          using up to (NFOCK): 10 stored Fock matrices.

                    Damping( 0%)  Levelshifting(0.5)       DIIS
                  --------------- ------------------- ---------------
          dE  on:    start            ASAP                start   
          dE off:    2 iters         30 iters            30 iters 


      Screening Tolerance Information
      -------------------------------
          Density screening/tol_rho: 1.00D-11
          AO Gaussian exp screening on grid/accAOfunc:  16
          CD Gaussian exp screening on grid/accCDfunc:  20
          XC Gaussian exp screening on grid/accXCfunc:  20
          Schwarz screening/accCoul: 1.00D-08


 !! nbf/nmo/basis-name mismatch 
           nbf=  32 nbf_file=  25
           nmo=  32nmo_file=  25
           basis="ao basis" basis_file="ao basis"

  Either an incorrect movecs file was specified, or linear dependence has changed,
  or the basis name was changed. 

 Loading old vectors from job with title :

H3N1 dft freq


  Load of old vectors failed.   Forcing atomic density guess


      Superposition of Atomic Density Guess
      -------------------------------------

 Sum of atomic energies:         -55.80739562

      Non-variational initial energy
      ------------------------------

 Total energy =     -56.153283
 1-e energy   =     -97.735964
 2-e energy   =      29.895496
 HOMO         =      -0.356813
 LUMO         =       0.052041


      Symmetry analysis of molecular orbitals - initial
      -------------------------------------------------

  Numbering of irreducible representations: 

     1 a1          2 a2          3 e       

  Orbital symmetries:

     1 a1          2 a1          3 e           4 e           5 a1      
     6 a1          7 e           8 e           9 a1         10 e       
    11 e          12 a1         13 e          14 e          15 a1      

   Time after variat. SCF:     21.0
   Time prior to 1st pass:     21.0

 #quartets = 6.571D+03 #integrals = 4.227D+04 #direct =  0.0% #cached =100.0%


 Integral file          = ./NH3.aoints.0
 Record size in doubles =  65536        No. of integs per rec  =  43688
 Max. records in memory =      2        Max. records in file   = 185775
 No. of bits per label  =      8        No. of bits per value  =     64


 Grid_pts file          = ./NH3.gridpts.0
 Record size in doubles =  12289        No. of grid_pts per rec  =   3070
 Max. records in memory =     29        Max. recs in file   =    990726


           Memory utilization after 1st SCF pass: 
           Heap Space remaining (MW):       32.28            32278594
          Stack Space remaining (MW):       32.77            32767696

   convergence    iter        energy       DeltaE   RMS-Dens  Diis-err    time
 ---------------- ----- ----------------- --------- --------- ---------  ------
 d= 0,ls=0.0,diis     1    -56.1481050322 -6.78D+01  2.84D-02  4.36D-01    21.2
 d= 0,ls=0.0,diis     2    -56.1097469655  3.84D-02  2.13D-02  6.51D-01    21.8
 d= 0,ls=0.0,diis     3    -56.1730764219 -6.33D-02  3.61D-03  1.05D-01    22.4
 d= 0,ls=0.0,diis     4    -56.1835855672 -1.05D-02  1.16D-03  6.66D-04    23.0
 d= 0,ls=0.0,diis     5    -56.1836611211 -7.56D-05  1.05D-04  1.71D-05    23.5
  Resetting Diis
 d= 0,ls=0.0,diis     6    -56.1836632048 -2.08D-06  1.08D-05  2.85D-07    24.1
 d= 0,ls=0.0,diis     7    -56.1836632389 -3.41D-08  1.09D-06  6.68D-10    24.6


         Total DFT energy =      -56.183663238946
      One electron energy =      -99.006043319955
           Coulomb energy =       38.722313878072
    Exchange-Corr. energy =       -7.587118818984
 Nuclear repulsion energy =       11.687185021921

 Numeric. integr. density =       10.000000065440

     Total iterative time =      4.1s



                  Occupations of the irreducible representations
                  ----------------------------------------------

                     irrep           alpha         beta
                     --------     --------     --------
                     a1                3.0          3.0
                     a2                0.0          0.0
                     e                 2.0          2.0


                       DFT Final Molecular Orbital Analysis
                       ------------------------------------

 Vector    1  Occ=2.000000D+00  E=-1.395459D+01  Symmetry=a1
              MO Center= -6.4D-22, -4.2D-22,  6.4D-02, r^2= 2.0D-02
   Bfn.  Coefficient  Atom+Function         Bfn.  Coefficient  Atom+Function  
  ----- ------------  ---------------      ----- ------------  ---------------
     1      0.558547  1 N  s                  2      0.460602  1 N  s          

 Vector    2  Occ=2.000000D+00  E=-7.332399D-01  Symmetry=a1
              MO Center=  2.3D-16,  1.6D-17, -1.0D-01, r^2= 7.1D-01
   Bfn.  Coefficient  Atom+Function         Bfn.  Coefficient  Atom+Function  
  ----- ------------  ---------------      ----- ------------  ---------------
     6      0.494655  1 N  s                 10      0.374017  1 N  s          
     2     -0.175534  1 N  s          

 Vector    3  Occ=2.000000D+00  E=-3.891379D-01  Symmetry=e
              MO Center= -1.5D-01,  1.4D-01, -7.0D-02, r^2= 1.0D+00
   Bfn.  Coefficient  Atom+Function         Bfn.  Coefficient  Atom+Function  
  ----- ------------  ---------------      ----- ------------  ---------------
     7      0.332917  1 N  px                11      0.221907  1 N  px         
     3      0.219363  1 N  px                31     -0.193458  4 H  s          
    30     -0.175776  4 H  s          

 Vector    4  Occ=2.000000D+00  E=-3.891379D-01  Symmetry=e
              MO Center=  1.5D-01, -1.4D-01, -7.0D-02, r^2= 1.0D+00
   Bfn.  Coefficient  Atom+Function         Bfn.  Coefficient  Atom+Function  
  ----- ------------  ---------------      ----- ------------  ---------------
     8      0.332917  1 N  py                12      0.221907  1 N  py         
     4      0.219363  1 N  py                28     -0.191297  3 H  s          
    27     -0.173811  3 H  s          

 Vector    5  Occ=2.000000D+00  E=-1.799500D-01  Symmetry=a1
              MO Center=  2.3D-16, -6.3D-17,  1.9D-01, r^2= 1.1D+00
   Bfn.  Coefficient  Atom+Function         Bfn.  Coefficient  Atom+Function  
  ----- ------------  ---------------      ----- ------------  ---------------
    13      0.410085  1 N  pz                 9      0.377460  1 N  pz         
     5      0.262137  1 N  pz                17      0.182100  1 N  pz         
     6      0.164010  1 N  s                 10      0.158587  1 N  s          

 Vector    6  Occ=0.000000D+00  E= 6.954452D-03  Symmetry=a1
              MO Center=  2.8D-17,  1.1D-16, -6.3D-01, r^2= 4.8D+00
   Bfn.  Coefficient  Atom+Function         Bfn.  Coefficient  Atom+Function  
  ----- ------------  ---------------      ----- ------------  ---------------
    14      2.354866  1 N  s                 10     -0.972777  1 N  s          
    17     -0.485381  1 N  pz                26     -0.463154  2 H  s          
    29     -0.463154  3 H  s                 32     -0.463154  4 H  s          
     6     -0.197414  1 N  s                 25      0.190799  2 H  s          
    28      0.190799  3 H  s                 31      0.190799  4 H  s          

 Vector    7  Occ=0.000000D+00  E= 7.661264D-02  Symmetry=e
              MO Center=  1.4D-01, -7.2D-02,  1.6D-01, r^2= 6.7D+00
   Bfn.  Coefficient  Atom+Function         Bfn.  Coefficient  Atom+Function  
  ----- ------------  ---------------      ----- ------------  ---------------
    15      1.452067  1 N  px                11     -0.467616  1 N  px         
    32      0.452970  4 H  s                 26     -0.269561  2 H  s          
    16     -0.223069  1 N  py                29     -0.183409  3 H  s          
     7     -0.166182  1 N  px         

 Vector    8  Occ=0.000000D+00  E= 7.661264D-02  Symmetry=e
              MO Center= -1.4D-01,  7.2D-02,  1.6D-01, r^2= 6.7D+00
   Bfn.  Coefficient  Atom+Function         Bfn.  Coefficient  Atom+Function  
  ----- ------------  ---------------      ----- ------------  ---------------
    16      1.452067  1 N  py                12     -0.467616  1 N  py         
    29      0.417153  3 H  s                 26     -0.367414  2 H  s          
    15      0.223069  1 N  px                 8     -0.166182  1 N  py         

 Vector    9  Occ=0.000000D+00  E= 1.065249D-01  Symmetry=a1
              MO Center=  5.9D-15,  3.3D-15,  1.7D-01, r^2= 6.4D+00
   Bfn.  Coefficient  Atom+Function         Bfn.  Coefficient  Atom+Function  
  ----- ------------  ---------------      ----- ------------  ---------------
    17      1.414912  1 N  pz                14     -1.157032  1 N  s          
    26      0.753267  2 H  s                 29      0.753267  3 H  s          
    32      0.753267  4 H  s                 10     -0.665242  1 N  s          
    13     -0.412335  1 N  pz         

 Vector   10  Occ=0.000000D+00  E= 1.409560D-01  Symmetry=e
              MO Center= -3.8D-02, -1.3D-01, -2.3D-02, r^2= 4.7D+00
   Bfn.  Coefficient  Atom+Function         Bfn.  Coefficient  Atom+Function  
  ----- ------------  ---------------      ----- ------------  ---------------
    29      2.855675  3 H  s                 32     -2.112079  4 H  s          
    16      1.498543  1 N  py                15     -0.881492  1 N  px         
    26     -0.743596  2 H  s                 12      0.642490  1 N  py         
    11     -0.377934  1 N  px                28      0.176826  3 H  s          

 Vector   11  Occ=0.000000D+00  E= 1.409560D-01  Symmetry=e
              MO Center=  3.8D-02,  1.3D-01, -2.3D-02, r^2= 4.7D+00
   Bfn.  Coefficient  Atom+Function         Bfn.  Coefficient  Atom+Function  
  ----- ------------  ---------------      ----- ------------  ---------------
    26      2.868134  2 H  s                 32     -2.078040  4 H  s          
    15     -1.498543  1 N  px                16     -0.881492  1 N  py         
    29     -0.790094  3 H  s                 11     -0.642490  1 N  px         
    12     -0.377934  1 N  py                25      0.177597  2 H  s          

 Vector   12  Occ=0.000000D+00  E= 1.730031D-01  Symmetry=a1
              MO Center=  8.8D-15,  5.8D-15, -4.1D-02, r^2= 6.0D+00
   Bfn.  Coefficient  Atom+Function         Bfn.  Coefficient  Atom+Function  
  ----- ------------  ---------------      ----- ------------  ---------------
    14      6.108132  1 N  s                 26     -2.793360  2 H  s          
    29     -2.793360  3 H  s                 32     -2.793360  4 H  s          
    10      1.303085  1 N  s                 17     -0.755299  1 N  pz         
    13     -0.462987  1 N  pz         

 Vector   13  Occ=0.000000D+00  E= 4.788884D-01  Symmetry=e
              MO Center= -1.3D-01, -4.5D-02, -2.5D-02, r^2= 4.1D+00
   Bfn.  Coefficient  Atom+Function         Bfn.  Coefficient  Atom+Function  
  ----- ------------  ---------------      ----- ------------  ---------------
    32      3.229068  4 H  s                 29     -2.463288  3 H  s          
    31     -1.677163  4 H  s                 15      1.580832  1 N  px         
    28      1.279420  3 H  s                 16     -0.983354  1 N  py         
    11     -0.803280  1 N  px                26     -0.765780  2 H  s          
    12      0.499679  1 N  py                25      0.397743  2 H  s          

 Vector   14  Occ=0.000000D+00  E= 4.788884D-01  Symmetry=e
              MO Center=  1.3D-01,  4.5D-02, -2.5D-02, r^2= 4.1D+00
   Bfn.  Coefficient  Atom+Function         Bfn.  Coefficient  Atom+Function  
  ----- ------------  ---------------      ----- ------------  ---------------
    26      3.286483  2 H  s                 29     -2.306427  3 H  s          
    25     -1.706984  2 H  s                 16     -1.580832  1 N  py         
    28      1.197947  3 H  s                 15     -0.983354  1 N  px         
    32     -0.980056  4 H  s                 12      0.803280  1 N  py         
    31      0.509037  4 H  s                 11      0.499679  1 N  px         

 Vector   15  Occ=0.000000D+00  E= 5.650705D-01  Symmetry=a1
              MO Center=  8.4D-15,  3.6D-14, -5.1D-01, r^2= 3.7D+00
   Bfn.  Coefficient  Atom+Function         Bfn.  Coefficient  Atom+Function  
  ----- ------------  ---------------      ----- ------------  ---------------
    14      5.194129  1 N  s                 26     -2.871008  2 H  s          
    29     -2.871008  3 H  s                 32     -2.871008  4 H  s          
    25      1.446556  2 H  s                 28      1.446556  3 H  s          
    31      1.446556  4 H  s                 17     -0.983383  1 N  pz         
    10     -0.576375  1 N  s                 13      0.497920  1 N  pz         


 center of mass
 --------------
 x =  -0.00000000 y =  -0.00000000 z =   0.01935273

 moments of inertia (a.u.)
 ------------------
           6.080127397428           0.000000000000          -0.000000000000
           0.000000000000           6.080127397428          -0.000000000000
          -0.000000000000          -0.000000000000          10.524558749678

     Multipole analysis of the density
     ---------------------------------

     L   x y z        total         alpha         beta         nuclear
     -   - - -        -----         -----         ----         -------
     0   0 0 0     -0.000000     -5.000000     -5.000000     10.000000

     1   1 0 0     -0.000000     -0.000000     -0.000000     -0.000000
     1   0 1 0     -0.000000     -0.000000     -0.000000     -0.000000
     1   0 0 1     -0.565358     -0.028386     -0.028386     -0.508587

     2   2 0 0     -4.778376     -4.999899     -4.999899      5.221422
     2   1 1 0      0.000000      0.000000      0.000000     -0.000000
     2   1 0 1     -0.000000     -0.000000     -0.000000      0.000000
     2   0 2 0     -4.778376     -4.999899     -4.999899      5.221422
     2   0 1 1     -0.000000     -0.000000     -0.000000      0.000000
     2   0 0 2     -7.841358     -4.278962     -4.278962      0.716565


 Parallel integral file used       1 records with       0 large values


 Task  times  cpu:        4.9s     wall:        5.1s
 Summary of allocated global arrays
-----------------------------------
  No active global arrays



                         GA Statistics for process    0
                         ------------------------------

       create   destroy   get      put      acc     scatter   gather  read&inc
calls: 2499     2499     2.28e+05 2.20e+04 1.57e+05  314        0     5711     
number of processes/call 1.00e+00 1.00e+00 1.00e+00 1.00e+00 0.00e+00
bytes total:             9.51e+07 8.37e+06 6.40e+07 1.37e+06 0.00e+00 4.57e+04
bytes remote:            0.00e+00 0.00e+00 0.00e+00 0.00e+00 0.00e+00 0.00e+00
Max memory consumed for GA by this process: 585400 bytes
MA_summarize_allocated_blocks: starting scan ...
MA_summarize_allocated_blocks: scan completed: 0 heap blocks, 0 stack blocks
MA usage statistics:

	allocation statistics:
					      heap	     stack
					      ----	     -----
	current number of blocks	         0	         0
	maximum number of blocks	        26	        52
	current total bytes		         0	         0
	maximum total bytes		   6895848	  69035888
	maximum total K-bytes		      6896	     69036
	maximum total M-bytes		         7	        70


                                NWChem Input Module
                                -------------------





                                     CITATION
                                     --------
                Please cite the following reference when publishing
                           results obtained with NWChem:

                 M. Valiev, E.J. Bylaska, N. Govind, K. Kowalski,
              T.P. Straatsma, H.J.J. van Dam, D. Wang, J. Nieplocha,
                        E. Apra, T.L. Windus, W.A. de Jong
                 "NWChem: a comprehensive and scalable open-source
                  solution for large scale molecular simulations"
                      Comput. Phys. Commun. 181, 1477 (2010)
                           doi:10.1016/j.cpc.2010.04.018

                              AUTHORS & CONTRIBUTORS
                              ----------------------
          E. Apra, E. J. Bylaska, W. A. de Jong, N. Govind, K. Kowalski,
       T. P. Straatsma, M. Valiev, H. J. J. van Dam, D. Wang, T. L. Windus,
        J. Hammond, J. Autschbach, K. Bhaskaran-Nair, J. Brabec, K. Lopata,
     F. Aquino, S. Hirata, M. T. Hackler, J. Mullin, P. Nichols, R. Peverati,
    J. Pittner, Y. Zhao, P.-D. Fan, R. J. Harrison, M. Dupuis, D. Silverstein,
    D. M. A. Smith, J. Nieplocha, V. Tipparaju, M. Krishnan, B. E. Van Kuiken,
        A. Vazquez-Mayagoitia, L. Jensen, M. Swart, Q. Wu, T. Van Voorhis,
     A. A. Auer, M. Nooijen, L. D. Crosby, E. Brown, G. Cisneros, G. I. Fann,
     H. Fruchtl, J. Garza, K. Hirao, R. Kendall, J. A. Nichols, K. Tsemekhman,
      K. Wolinski, J. Anchell, D. Bernholdt, P. Borowski, T. Clark, D. Clerc,
      H. Dachsel, M. Deegan, K. Dyall, D. Elwood, E. Glendening, M. Gutowski,
      A. Hess, J. Jaffe, B. Johnson, J. Ju, R. Kobayashi, R. Kutteh, Z. Lin,
   R. Littlefield, X. Long, B. Meng, T. Nakajima, S. Niu, L. Pollack, M. Rosing,
   K. Glaesemann, G. Sandrone, M. Stave, H. Taylor, G. Thomas, J. H. van Lenthe,
                                A. Wong, Z. Zhang.

 Total times  cpu:       25.5s     wall:       26.4s
