
     Program PWSCF v.5.1 starts on  1May2015 at 10:26:52 

     This program is part of the open-source Quantum ESPRESSO suite
     for quantum simulation of materials; please cite
         "P. Giannozzi et al., J. Phys.:Condens. Matter 21 395502 (2009);
          URL http://www.quantum-espresso.org", 
     in publications or presentations arising from this work. More details at
     http://www.quantum-espresso.org/quote

     Parallel version (MPI), running on     1 processors
     Waiting for input...
     Reading input from standard input
Warning: card &IONS ignored
Warning: card / ignored
Warning: card &CELL ignored
Warning: card / ignored

     Current dimensions of program PWSCF are:
     Max number of different atomic species (ntypx) = 10
     Max number of k-points (npk) =  40000
     Max angular momentum in pseudopotentials (lmaxx) =  3
               file Si.pbe-n-kjpaw_psl.0.1.UPF: wavefunction(s)  3S renormalized

     Subspace diagonalization in iterative solution of the eigenvalue problem:
     a serial algorithm will be used

 
     G-vector sticks info
     --------------------
     sticks:   dense  smooth     PW     G-vecs:    dense   smooth      PW
     Sum         721     721    211                12627    12627    2109
 


     bravais-lattice index     =            2
     lattice parameter (alat)  =      10.2000  a.u.
     unit-cell volume          =     265.3020 (a.u.)^3
     number of atoms/cell      =            2
     number of atomic types    =            1
     number of electrons       =         8.00
     number of Kohn-Sham states=            4
     kinetic-energy cutoff     =      50.0000  Ry
     charge density cutoff     =     200.0000  Ry
     convergence threshold     =      1.0E-06
     mixing beta               =       0.7000
     number of iterations used =            8  plain     mixing
     Exchange-correlation      =  SLA  PW   PBX  PBC ( 1  4  3  4 0)

     celldm(1)=  10.200000  celldm(2)=   0.000000  celldm(3)=   0.000000
     celldm(4)=   0.000000  celldm(5)=   0.000000  celldm(6)=   0.000000

     crystal axes: (cart. coord. in units of alat)
               a(1) = (  -0.500000   0.000000   0.500000 )  
               a(2) = (   0.000000   0.500000   0.500000 )  
               a(3) = (  -0.500000   0.500000   0.000000 )  

     reciprocal axes: (cart. coord. in units 2 pi/alat)
               b(1) = ( -1.000000 -1.000000  1.000000 )  
               b(2) = (  1.000000  1.000000  1.000000 )  
               b(3) = ( -1.000000  1.000000 -1.000000 )  


     PseudoPot. # 1 for Si read from file:
     ./Si.pbe-n-kjpaw_psl.0.1.UPF
     MD5 check sum: b9d333a40e496bef61db012f150758bf
     Pseudo is Projector augmented-wave + core cor, Zval =  4.0
     Generated using "atomic" code by A. Dal Corso  v.5.0.2 svn rev. 9415
     Shape of augmentation charge: PSQ
     Using radial grid of 1141 points,  4 beta functions with: 
                l(1) =   0
                l(2) =   0
                l(3) =   1
                l(4) =   1
     Q(r) pseudized with 0 coefficients 


     atomic species   valence    mass     pseudopotential
        Si             4.00    28.05500     Si( 1.00)

     48 Sym. Ops., with inversion, found (24 have fractional translation)



   Cartesian axes

     site n.     atom                  positions (alat units)
         1           Si  tau(   1) = (   0.0000000   0.0000000   0.0000000  )
         2           Si  tau(   2) = (  -0.2500000   0.2500000   0.2500000  )

     number of k points=    35
                       cart. coord. in units 2pi/alat
        k(    1) = (   0.0000000   0.0000000   0.0000000), wk =   0.0027435
        k(    2) = (  -0.1111111   0.1111111  -0.1111111), wk =   0.0219479
        k(    3) = (  -0.2222222   0.2222222  -0.2222222), wk =   0.0219479
        k(    4) = (  -0.3333333   0.3333333  -0.3333333), wk =   0.0219479
        k(    5) = (  -0.4444444   0.4444444  -0.4444444), wk =   0.0219479
        k(    6) = (   0.0000000   0.2222222   0.0000000), wk =   0.0164609
        k(    7) = (  -0.1111111   0.3333333  -0.1111111), wk =   0.0658436
        k(    8) = (  -0.2222222   0.4444444  -0.2222222), wk =   0.0658436
        k(    9) = (  -0.3333333   0.5555556  -0.3333333), wk =   0.0658436
        k(   10) = (   0.5555556  -0.3333333   0.5555556), wk =   0.0658436
        k(   11) = (   0.4444444  -0.2222222   0.4444444), wk =   0.0658436
        k(   12) = (   0.3333333  -0.1111111   0.3333333), wk =   0.0658436
        k(   13) = (   0.2222222  -0.0000000   0.2222222), wk =   0.0329218
        k(   14) = (   0.0000000   0.4444444   0.0000000), wk =   0.0164609
        k(   15) = (  -0.1111111   0.5555556  -0.1111111), wk =   0.0658436
        k(   16) = (  -0.2222222   0.6666667  -0.2222222), wk =   0.0658436
        k(   17) = (   0.6666667  -0.2222222   0.6666667), wk =   0.0658436
        k(   18) = (   0.5555556  -0.1111111   0.5555556), wk =   0.0658436
        k(   19) = (   0.4444444   0.0000000   0.4444444), wk =   0.0329218
        k(   20) = (   0.0000000   0.6666667   0.0000000), wk =   0.0164609
        k(   21) = (  -0.1111111   0.7777778  -0.1111111), wk =   0.0658436
        k(   22) = (   0.7777778  -0.1111111   0.7777778), wk =   0.0658436
        k(   23) = (   0.6666667  -0.0000000   0.6666667), wk =   0.0329218
        k(   24) = (   0.0000000   0.8888889   0.0000000), wk =   0.0164609
        k(   25) = (   0.8888889   0.0000000   0.8888889), wk =   0.0329218
        k(   26) = (  -0.2222222   0.4444444   0.0000000), wk =   0.0658436
        k(   27) = (  -0.3333333   0.5555556  -0.1111111), wk =   0.1316872
        k(   28) = (   0.5555556  -0.3333333   0.7777778), wk =   0.1316872
        k(   29) = (  -0.2222222   0.6666667   0.0000000), wk =   0.0658436
        k(   30) = (   0.6666667  -0.2222222   0.8888889), wk =   0.1316872
        k(   31) = (   0.5555556  -0.1111111   0.7777778), wk =   0.1316872
        k(   32) = (   0.4444444   0.0000000   0.6666667), wk =   0.0658436
        k(   33) = (   0.7777778  -0.1111111   1.0000000), wk =   0.0658436
        k(   34) = (   0.6666667  -0.0000000   0.8888889), wk =   0.0658436
        k(   35) = (   0.5555556  -0.1111111   1.0000000), wk =   0.0658436

     Dense  grid:    12627 G-vectors     FFT dimensions: (  36,  36,  36)

     Largest allocated arrays     est. size (Mb)     dimensions
        Kohn-Sham Wavefunctions         0.10 Mb     (    1596,    4)
        NL pseudopotentials             0.39 Mb     (    1596,   16)
        Each V/rho on FFT grid          0.71 Mb     (   46656)
        Each G-vector array             0.10 Mb     (   12627)
        G-vector shells                 0.00 Mb     (     177)
     Largest temporary arrays     est. size (Mb)     dimensions
        Auxiliary wavefunctions         0.39 Mb     (    1596,   16)
        Each subspace H/S matrix        0.00 Mb     (      16,   16)
        Each <psi_i|beta_j> matrix      0.00 Mb     (      16,    4)
        Arrays for rho mixing           5.70 Mb     (   46656,    8)

     Initial potential from superposition of free atoms

     starting charge    7.99888, renormalised to    8.00000
     Starting wfc are    8 randomized atomic wfcs
     Checking if some PAW data can be deallocated... 

     total cpu time spent up to now is        0.8 secs

     per-process dynamical memory:    14.1 Mb

     Self-consistent Calculation

     iteration #  1     ecut=    50.00 Ry     beta=0.70
     Davidson diagonalization with overlap
     ethr =  1.00E-02,  avg # of iterations =  2.0

     Threshold (ethr) on eigenvalues was too large:
     Diagonalizing with lowered threshold

     Davidson diagonalization with overlap
     ethr =  7.39E-04,  avg # of iterations =  1.0

     total cpu time spent up to now is        2.2 secs

     total energy              =     -93.45032586 Ry
     Harris-Foulkes estimate   =     -93.46493621 Ry
     estimated scf accuracy    <       0.05869916 Ry

     iteration #  2     ecut=    50.00 Ry     beta=0.70
     Davidson diagonalization with overlap
     ethr =  7.34E-04,  avg # of iterations =  1.0

     total cpu time spent up to now is        2.8 secs

     total energy              =     -93.45261957 Ry
     Harris-Foulkes estimate   =     -93.45274650 Ry
     estimated scf accuracy    <       0.00242822 Ry

     iteration #  3     ecut=    50.00 Ry     beta=0.70
     Davidson diagonalization with overlap
     ethr =  3.04E-05,  avg # of iterations =  2.1

     total cpu time spent up to now is        3.5 secs

     total energy              =     -93.45293558 Ry
     Harris-Foulkes estimate   =     -93.45295584 Ry
     estimated scf accuracy    <       0.00005770 Ry

     iteration #  4     ecut=    50.00 Ry     beta=0.70
     Davidson diagonalization with overlap
     ethr =  7.21E-07,  avg # of iterations =  2.9

     total cpu time spent up to now is        4.4 secs

     total energy              =     -93.45296188 Ry
     Harris-Foulkes estimate   =     -93.45296332 Ry
     estimated scf accuracy    <       0.00000373 Ry

     iteration #  5     ecut=    50.00 Ry     beta=0.70
     Davidson diagonalization with overlap
     ethr =  4.66E-08,  avg # of iterations =  2.5

     total cpu time spent up to now is        5.2 secs

     End of self-consistent calculation

          k = 0.0000 0.0000 0.0000 (  1591 PWs)   bands (ev):

    -5.6898   6.4045   6.4045   6.4045

          k =-0.1111 0.1111-0.1111 (  1573 PWs)   bands (ev):

    -5.5255   5.0548   6.1622   6.1622

          k =-0.2222 0.2222-0.2222 (  1579 PWs)   bands (ev):

    -5.0428   2.9536   5.7314   5.7314

          k =-0.3333 0.3333-0.3333 (  1591 PWs)   bands (ev):

    -4.2880   1.0127   5.3891   5.3891

          k =-0.4444 0.4444-0.4444 (  1580 PWs)   bands (ev):

    -3.4776  -0.4099   5.2113   5.2113

          k = 0.0000 0.2222 0.0000 (  1575 PWs)   bands (ev):

    -5.4703   5.3086   5.7118   5.7118

          k =-0.1111 0.3333-0.1111 (  1577 PWs)   bands (ev):

    -5.0918   3.5941   5.2301   5.3808

          k =-0.2222 0.4444-0.2222 (  1583 PWs)   bands (ev):

    -4.4189   1.6556   4.8691   4.9213

          k =-0.3333 0.5556-0.3333 (  1581 PWs)   bands (ev):

    -3.5745   0.0358   4.4262   4.8395

          k = 0.5556-0.3333 0.5556 (  1579 PWs)   bands (ev):

    -3.1846  -0.5506   4.1612   4.9835

          k = 0.4444-0.2222 0.4444 (  1576 PWs)   bands (ev):

    -3.8596   0.5217   4.1230   5.3208

          k = 0.3333-0.1111 0.3333 (  1579 PWs)   bands (ev):

    -4.6745   2.2820   4.3537   5.7789

          k = 0.2222-0.0000 0.2222 (  1564 PWs)   bands (ev):

    -5.2543   4.0754   5.0092   6.1792

          k = 0.0000 0.4444 0.0000 (  1587 PWs)   bands (ev):

    -4.8182   3.3916   4.6991   4.6991

          k =-0.1111 0.5556-0.1111 (  1582 PWs)   bands (ev):

    -4.2388   2.0340   4.0659   4.3516

          k =-0.2222 0.6667-0.2222 (  1592 PWs)   bands (ev):

    -3.4238   0.5311   3.3147   4.2531

          k = 0.6667-0.2222 0.6667 (  1580 PWs)   bands (ev):

    -2.7510  -0.4354   2.7857   4.4121

          k = 0.5556-0.1111 0.5556 (  1580 PWs)   bands (ev):

    -3.1744   0.1579   2.5966   4.8011

          k = 0.4444 0.0000 0.4444 (  1572 PWs)   bands (ev):

    -4.0148   1.4316   2.9819   5.3342

          k = 0.0000 0.6667 0.0000 (  1580 PWs)   bands (ev):

    -3.7534   1.3755   3.9436   3.9436

          k =-0.1111 0.7778-0.1111 (  1595 PWs)   bands (ev):

    -3.0010   0.3084   3.2002   3.7842

          k = 0.7778-0.1111 0.7778 (  1591 PWs)   bands (ev):

    -2.1881  -0.6071   2.2740   3.8939

          k = 0.6667-0.0000 0.6667 (  1578 PWs)   bands (ev):

    -2.3630  -0.4166   1.9028   4.2562

          k = 0.0000 0.8889 0.0000 (  1596 PWs)   bands (ev):

    -2.3148  -0.5704   3.5519   3.5519

          k = 0.8889 0.0000 0.8889 (  1594 PWs)   bands (ev):

    -1.5261  -1.3570   2.9186   3.5903

          k =-0.2222 0.4444 0.0000 (  1580 PWs)   bands (ev):

    -4.6139   2.6004   3.9887   5.2215

          k =-0.3333 0.5556-0.1111 (  1584 PWs)   bands (ev):

    -3.8645   1.0831   3.3783   4.7729

          k = 0.5556-0.3333 0.7778 (  1579 PWs)   bands (ev):

    -3.0490  -0.2351   3.1889   4.4409

          k =-0.2222 0.6667 0.0000 (  1590 PWs)   bands (ev):

    -3.5752   1.0651   3.2645   3.9684

          k = 0.6667-0.2222 0.8889 (  1588 PWs)   bands (ev):

    -2.7310  -0.0390   2.5881   3.6544

          k = 0.5556-0.1111 0.7778 (  1587 PWs)   bands (ev):

    -2.3549  -0.4768   2.1931   3.7700

          k = 0.4444 0.0000 0.6667 (  1581 PWs)   bands (ev):

    -3.0727   0.3417   2.3409   4.2172

          k = 0.7778-0.1111 1.0000 (  1590 PWs)   bands (ev):

    -2.1947  -0.5845   2.9709   3.1830

          k = 0.6667-0.0000 0.8889 (  1593 PWs)   bands (ev):

    -1.6572  -1.0552   2.2266   3.2737

          k = 0.5556-0.1111 1.0000 (  1591 PWs)   bands (ev):

    -1.9089  -0.7318   2.2673   2.9217

     highest occupied level (ev):     6.4045

!    total energy              =     -93.45296290 Ry
     Harris-Foulkes estimate   =     -93.45296298 Ry
     estimated scf accuracy    <       0.00000009 Ry

     total all-electron energy =     -1160.144699 Ry

     The total energy is the sum of the following terms:

     one-electron contribution =       5.88054104 Ry
     hartree contribution      =       1.08178331 Ry
     xc contribution           =     -12.27763783 Ry
     ewald contribution        =     -16.89975861 Ry
     one-center paw contrib.   =     -71.23789081 Ry

     convergence has been achieved in   5 iterations

     Forces acting on atoms (Ry/au):

     atom    1 type  1   force =     0.00000000    0.00000000    0.00000000
     atom    2 type  1   force =     0.00000000    0.00000000    0.00000000

     Total force =     0.000000     Total SCF correction =     0.000000


     entering subroutine stress ...

          total   stress  (Ry/bohr**3)                   (kbar)     P=   36.59
   0.00024877  -0.00000000  -0.00000000         36.59     -0.00     -0.00
  -0.00000000   0.00024877   0.00000000         -0.00     36.59      0.00
  -0.00000000   0.00000000   0.00024877         -0.00      0.00     36.59


     Writing output data file pwscf.save
 
     init_run     :      0.71s CPU      0.72s WALL (       1 calls)
     electrons    :      4.32s CPU      4.36s WALL (       1 calls)
     forces       :      0.07s CPU      0.07s WALL (       1 calls)
     stress       :      0.24s CPU      0.25s WALL (       1 calls)

     Called by init_run:
     wfcinit      :      0.37s CPU      0.38s WALL (       1 calls)
     potinit      :      0.12s CPU      0.12s WALL (       1 calls)

     Called by electrons:
     c_bands      :      3.02s CPU      3.04s WALL (       6 calls)
     sum_band     :      0.67s CPU      0.68s WALL (       6 calls)
     v_of_rho     :      0.16s CPU      0.17s WALL (       6 calls)
     newd         :      0.05s CPU      0.05s WALL (       6 calls)
     mix_rho      :      0.01s CPU      0.01s WALL (       6 calls)

     Called by c_bands:
     init_us_2    :      0.14s CPU      0.14s WALL (     525 calls)
     cegterg      :      2.78s CPU      2.82s WALL (     210 calls)

     Called by *egterg:
     h_psi        :      2.95s CPU      2.97s WALL (     646 calls)
     s_psi        :      0.02s CPU      0.03s WALL (     646 calls)
     g_psi        :      0.03s CPU      0.03s WALL (     401 calls)
     cdiaghg      :      0.02s CPU      0.02s WALL (     576 calls)

     Called by h_psi:
     add_vuspsi   :      0.03s CPU      0.03s WALL (     646 calls)

     General routines
     calbec       :      0.08s CPU      0.07s WALL (     926 calls)
     fft          :      0.08s CPU      0.09s WALL (     105 calls)
     fftw         :      3.08s CPU      3.08s WALL (    5810 calls)
     davcio       :      0.00s CPU      0.00s WALL (      35 calls)
 
     Parallel routines
     fft_scatter  :      0.17s CPU      0.20s WALL (    5915 calls)

     PAW routines
     PAW_pot      :      0.53s CPU      0.53s WALL (       6 calls)
     PAW_symme    :      0.00s CPU      0.00s WALL (      12 calls)
 
     PWSCF        :     5.54s CPU         5.68s WALL

 
   This run was terminated on:  10:26:58   1May2015            

=------------------------------------------------------------------------------=
   JOB DONE.
=------------------------------------------------------------------------------=
