
     Program PWSCF v.5.1 starts on  1May2015 at 10:28:38 

     This program is part of the open-source Quantum ESPRESSO suite
     for quantum simulation of materials; please cite
         "P. Giannozzi et al., J. Phys.:Condens. Matter 21 395502 (2009);
          URL http://www.quantum-espresso.org", 
     in publications or presentations arising from this work. More details at
     http://www.quantum-espresso.org/quote

     Parallel version (MPI), running on     1 processors
     Waiting for input...
     Reading input from standard input
Warning: card &IONS ignored
Warning: card / ignored
Warning: card &CELL ignored
Warning: card / ignored

     Current dimensions of program PWSCF are:
     Max number of different atomic species (ntypx) = 10
     Max number of k-points (npk) =  40000
     Max angular momentum in pseudopotentials (lmaxx) =  3
               file Si.pbe-n-kjpaw_psl.0.1.UPF: wavefunction(s)  3S renormalized

     Subspace diagonalization in iterative solution of the eigenvalue problem:
     a serial algorithm will be used

 
     G-vector sticks info
     --------------------
     sticks:   dense  smooth     PW     G-vecs:    dense   smooth      PW
     Sum         745     745    235                13635    13635    2277
 


     bravais-lattice index     =            2
     lattice parameter (alat)  =      10.4600  a.u.
     unit-cell volume          =     286.1113 (a.u.)^3
     number of atoms/cell      =            2
     number of atomic types    =            1
     number of electrons       =         8.00
     number of Kohn-Sham states=            4
     kinetic-energy cutoff     =      50.0000  Ry
     charge density cutoff     =     200.0000  Ry
     convergence threshold     =      1.0E-06
     mixing beta               =       0.7000
     number of iterations used =            8  plain     mixing
     Exchange-correlation      =  SLA  PW   PBX  PBC ( 1  4  3  4 0)

     celldm(1)=  10.460000  celldm(2)=   0.000000  celldm(3)=   0.000000
     celldm(4)=   0.000000  celldm(5)=   0.000000  celldm(6)=   0.000000

     crystal axes: (cart. coord. in units of alat)
               a(1) = (  -0.500000   0.000000   0.500000 )  
               a(2) = (   0.000000   0.500000   0.500000 )  
               a(3) = (  -0.500000   0.500000   0.000000 )  

     reciprocal axes: (cart. coord. in units 2 pi/alat)
               b(1) = ( -1.000000 -1.000000  1.000000 )  
               b(2) = (  1.000000  1.000000  1.000000 )  
               b(3) = ( -1.000000  1.000000 -1.000000 )  


     PseudoPot. # 1 for Si read from file:
     ./Si.pbe-n-kjpaw_psl.0.1.UPF
     MD5 check sum: b9d333a40e496bef61db012f150758bf
     Pseudo is Projector augmented-wave + core cor, Zval =  4.0
     Generated using "atomic" code by A. Dal Corso  v.5.0.2 svn rev. 9415
     Shape of augmentation charge: PSQ
     Using radial grid of 1141 points,  4 beta functions with: 
                l(1) =   0
                l(2) =   0
                l(3) =   1
                l(4) =   1
     Q(r) pseudized with 0 coefficients 


     atomic species   valence    mass     pseudopotential
        Si             4.00    28.05500     Si( 1.00)

     48 Sym. Ops., with inversion, found (24 have fractional translation)



   Cartesian axes

     site n.     atom                  positions (alat units)
         1           Si  tau(   1) = (   0.0000000   0.0000000   0.0000000  )
         2           Si  tau(   2) = (  -0.2500000   0.2500000   0.2500000  )

     number of k points=    35
                       cart. coord. in units 2pi/alat
        k(    1) = (   0.0000000   0.0000000   0.0000000), wk =   0.0027435
        k(    2) = (  -0.1111111   0.1111111  -0.1111111), wk =   0.0219479
        k(    3) = (  -0.2222222   0.2222222  -0.2222222), wk =   0.0219479
        k(    4) = (  -0.3333333   0.3333333  -0.3333333), wk =   0.0219479
        k(    5) = (  -0.4444444   0.4444444  -0.4444444), wk =   0.0219479
        k(    6) = (   0.0000000   0.2222222   0.0000000), wk =   0.0164609
        k(    7) = (  -0.1111111   0.3333333  -0.1111111), wk =   0.0658436
        k(    8) = (  -0.2222222   0.4444444  -0.2222222), wk =   0.0658436
        k(    9) = (  -0.3333333   0.5555556  -0.3333333), wk =   0.0658436
        k(   10) = (   0.5555556  -0.3333333   0.5555556), wk =   0.0658436
        k(   11) = (   0.4444444  -0.2222222   0.4444444), wk =   0.0658436
        k(   12) = (   0.3333333  -0.1111111   0.3333333), wk =   0.0658436
        k(   13) = (   0.2222222  -0.0000000   0.2222222), wk =   0.0329218
        k(   14) = (   0.0000000   0.4444444   0.0000000), wk =   0.0164609
        k(   15) = (  -0.1111111   0.5555556  -0.1111111), wk =   0.0658436
        k(   16) = (  -0.2222222   0.6666667  -0.2222222), wk =   0.0658436
        k(   17) = (   0.6666667  -0.2222222   0.6666667), wk =   0.0658436
        k(   18) = (   0.5555556  -0.1111111   0.5555556), wk =   0.0658436
        k(   19) = (   0.4444444   0.0000000   0.4444444), wk =   0.0329218
        k(   20) = (   0.0000000   0.6666667   0.0000000), wk =   0.0164609
        k(   21) = (  -0.1111111   0.7777778  -0.1111111), wk =   0.0658436
        k(   22) = (   0.7777778  -0.1111111   0.7777778), wk =   0.0658436
        k(   23) = (   0.6666667  -0.0000000   0.6666667), wk =   0.0329218
        k(   24) = (   0.0000000   0.8888889   0.0000000), wk =   0.0164609
        k(   25) = (   0.8888889   0.0000000   0.8888889), wk =   0.0329218
        k(   26) = (  -0.2222222   0.4444444   0.0000000), wk =   0.0658436
        k(   27) = (  -0.3333333   0.5555556  -0.1111111), wk =   0.1316872
        k(   28) = (   0.5555556  -0.3333333   0.7777778), wk =   0.1316872
        k(   29) = (  -0.2222222   0.6666667   0.0000000), wk =   0.0658436
        k(   30) = (   0.6666667  -0.2222222   0.8888889), wk =   0.1316872
        k(   31) = (   0.5555556  -0.1111111   0.7777778), wk =   0.1316872
        k(   32) = (   0.4444444   0.0000000   0.6666667), wk =   0.0658436
        k(   33) = (   0.7777778  -0.1111111   1.0000000), wk =   0.0658436
        k(   34) = (   0.6666667  -0.0000000   0.8888889), wk =   0.0658436
        k(   35) = (   0.5555556  -0.1111111   1.0000000), wk =   0.0658436

     Dense  grid:    13635 G-vectors     FFT dimensions: (  36,  36,  36)

     Largest allocated arrays     est. size (Mb)     dimensions
        Kohn-Sham Wavefunctions         0.11 Mb     (    1729,    4)
        NL pseudopotentials             0.42 Mb     (    1729,   16)
        Each V/rho on FFT grid          0.71 Mb     (   46656)
        Each G-vector array             0.10 Mb     (   13635)
        G-vector shells                 0.00 Mb     (     186)
     Largest temporary arrays     est. size (Mb)     dimensions
        Auxiliary wavefunctions         0.42 Mb     (    1729,   16)
        Each subspace H/S matrix        0.00 Mb     (      16,   16)
        Each <psi_i|beta_j> matrix      0.00 Mb     (      16,    4)
        Arrays for rho mixing           5.70 Mb     (   46656,    8)

     Check: negative/imaginary core charge=   -0.000001    0.000000

     Initial potential from superposition of free atoms

     starting charge    7.99888, renormalised to    8.00000
     Starting wfc are    8 randomized atomic wfcs
     Checking if some PAW data can be deallocated... 

     total cpu time spent up to now is        0.9 secs

     per-process dynamical memory:    14.7 Mb

     Self-consistent Calculation

     iteration #  1     ecut=    50.00 Ry     beta=0.70
     Davidson diagonalization with overlap
     ethr =  1.00E-02,  avg # of iterations =  2.0

     Threshold (ethr) on eigenvalues was too large:
     Diagonalizing with lowered threshold

     Davidson diagonalization with overlap
     ethr =  6.54E-04,  avg # of iterations =  1.1

     total cpu time spent up to now is        2.2 secs

     total energy              =     -93.45116370 Ry
     Harris-Foulkes estimate   =     -93.46253306 Ry
     estimated scf accuracy    <       0.05174941 Ry

     iteration #  2     ecut=    50.00 Ry     beta=0.70
     Davidson diagonalization with overlap
     ethr =  6.47E-04,  avg # of iterations =  1.0

     total cpu time spent up to now is        2.9 secs

     total energy              =     -93.45280859 Ry
     Harris-Foulkes estimate   =     -93.45295711 Ry
     estimated scf accuracy    <       0.00245418 Ry

     iteration #  3     ecut=    50.00 Ry     beta=0.70
     Davidson diagonalization with overlap
     ethr =  3.07E-05,  avg # of iterations =  1.8

     total cpu time spent up to now is        3.6 secs

     total energy              =     -93.45304233 Ry
     Harris-Foulkes estimate   =     -93.45305577 Ry
     estimated scf accuracy    <       0.00004301 Ry

     iteration #  4     ecut=    50.00 Ry     beta=0.70
     Davidson diagonalization with overlap
     ethr =  5.38E-07,  avg # of iterations =  3.1

     total cpu time spent up to now is        4.6 secs

     End of self-consistent calculation

          k = 0.0000 0.0000 0.0000 (  1687 PWs)   bands (ev):

    -5.9573   5.6242   5.6242   5.6242

          k =-0.1111 0.1111-0.1111 (  1720 PWs)   bands (ev):

    -5.8035   4.2842   5.4002   5.4002

          k =-0.2222 0.2222-0.2222 (  1709 PWs)   bands (ev):

    -5.3524   2.2789   4.9948   4.9948

          k =-0.3333 0.3333-0.3333 (  1688 PWs)   bands (ev):

    -4.6518   0.4512   4.6682   4.6682

          k =-0.4444 0.4444-0.4444 (  1694 PWs)   bands (ev):

    -3.9142  -0.8666   4.4971   4.4971

          k = 0.0000 0.2222 0.0000 (  1719 PWs)   bands (ev):

    -5.7518   4.4540   4.9905   4.9905

          k =-0.1111 0.3333-0.1111 (  1717 PWs)   bands (ev):

    -5.3977   2.8499   4.5397   4.6432

          k =-0.2222 0.4444-0.2222 (  1708 PWs)   bands (ev):

    -4.7711   1.0329   4.1541   4.2449

          k =-0.3333 0.5556-0.3333 (  1710 PWs)   bands (ev):

    -3.9952  -0.4726   3.7375   4.1613

          k = 0.5556-0.3333 0.5556 (  1723 PWs)   bands (ev):

    -3.6468  -1.0058   3.4951   4.2900

          k = 0.4444-0.2222 0.4444 (  1701 PWs)   bands (ev):

    -4.2553  -0.0233   3.4720   4.6017

          k = 0.3333-0.1111 0.3333 (  1715 PWs)   bands (ev):

    -5.0089   1.6177   3.7085   5.0287

          k = 0.2222-0.0000 0.2222 (  1729 PWs)   bands (ev):

    -5.5498   3.3057   4.3445   5.4043

          k = 0.0000 0.4444 0.0000 (  1716 PWs)   bands (ev):

    -5.1412   2.5734   4.0457   4.0457

          k =-0.1111 0.5556-0.1111 (  1699 PWs)   bands (ev):

    -4.6002   1.3077   3.4438   3.7178

          k =-0.2222 0.6667-0.2222 (  1708 PWs)   bands (ev):

    -3.8456  -0.0778   2.7328   3.6213

          k = 0.6667-0.2222 0.6667 (  1702 PWs)   bands (ev):

    -3.2385  -0.9535   2.2385   3.7658

          k = 0.5556-0.1111 0.5556 (  1723 PWs)   bands (ev):

    -3.6213  -0.4161   2.0780   4.1250

          k = 0.4444 0.0000 0.4444 (  1720 PWs)   bands (ev):

    -4.3951   0.7614   2.4595   4.6176

          k = 0.0000 0.6667 0.0000 (  1712 PWs)   bands (ev):

    -4.1450   0.6568   3.3356   3.3356

          k =-0.1111 0.7778-0.1111 (  1709 PWs)   bands (ev):

    -3.4442  -0.3465   2.6600   3.1844

          k = 0.7778-0.1111 0.7778 (  1700 PWs)   bands (ev):

    -2.7010  -1.1948   1.8166   3.2849

          k = 0.6667-0.0000 0.6667 (  1700 PWs)   bands (ev):

    -2.8727  -1.0057   1.4770   3.6211

          k = 0.0000 0.8889 0.0000 (  1712 PWs)   bands (ev):

    -2.8003  -1.1695   2.9666   2.9666

          k = 0.8889 0.0000 0.8889 (  1710 PWs)   bands (ev):

    -2.0731  -1.9029   2.4013   3.0019

          k =-0.2222 0.4444 0.0000 (  1708 PWs)   bands (ev):

    -4.9512   1.8654   3.3933   4.5097

          k =-0.3333 0.5556-0.1111 (  1710 PWs)   bands (ev):

    -4.2552   0.4531   2.7980   4.1023

          k = 0.5556-0.3333 0.7778 (  1713 PWs)   bands (ev):

    -3.5111  -0.7536   2.5974   3.8024

          k =-0.2222 0.6667 0.0000 (  1693 PWs)   bands (ev):

    -3.9817   0.3729   2.7174   3.3693

          k = 0.6667-0.2222 0.8889 (  1709 PWs)   bands (ev):

    -3.2031  -0.6547   2.0882   3.0854

          k = 0.5556-0.1111 0.7778 (  1706 PWs)   bands (ev):

    -2.8668  -1.0482   1.7256   3.1895

          k = 0.4444 0.0000 0.6667 (  1714 PWs)   bands (ev):

    -3.5222  -0.2924   1.8701   3.5983

          k = 0.7778-0.1111 1.0000 (  1709 PWs)   bands (ev):

    -2.6945  -1.1902   2.4471   2.6488

          k = 0.6667-0.0000 0.8889 (  1707 PWs)   bands (ev):

    -2.2118  -1.6244   1.7803   2.7306

          k = 0.5556-0.1111 1.0000 (  1702 PWs)   bands (ev):

    -2.4427  -1.3327   1.8140   2.4211

     highest occupied level (ev):     5.6242

!    total energy              =     -93.45307143 Ry
     Harris-Foulkes estimate   =     -93.45307163 Ry
     estimated scf accuracy    <       0.00000056 Ry

     total all-electron energy =     -1160.144807 Ry

     The total energy is the sum of the following terms:

     one-electron contribution =       5.29081467 Ry
     hartree contribution      =       1.14959174 Ry
     xc contribution           =     -12.18887268 Ry
     ewald contribution        =     -16.47968812 Ry
     one-center paw contrib.   =     -71.22491704 Ry

     convergence has been achieved in   4 iterations

     Forces acting on atoms (Ry/au):

     atom    1 type  1   force =     0.00000000    0.00000000    0.00000000
     atom    2 type  1   force =    -0.00000000   -0.00000000   -0.00000000

     Total force =     0.000000     Total SCF correction =     0.000000


     entering subroutine stress ...

          total   stress  (Ry/bohr**3)                   (kbar)     P=  -30.50
  -0.00020735  -0.00000000  -0.00000000        -30.50     -0.00     -0.00
  -0.00000000  -0.00020735   0.00000000         -0.00    -30.50      0.00
  -0.00000000   0.00000000  -0.00020735         -0.00      0.00    -30.50


     Writing output data file pwscf.save
 
     init_run     :      0.73s CPU      0.74s WALL (       1 calls)
     electrons    :      3.67s CPU      3.69s WALL (       1 calls)
     forces       :      0.07s CPU      0.08s WALL (       1 calls)
     stress       :      0.26s CPU      0.26s WALL (       1 calls)

     Called by init_run:
     wfcinit      :      0.39s CPU      0.39s WALL (       1 calls)
     potinit      :      0.12s CPU      0.12s WALL (       1 calls)

     Called by electrons:
     c_bands      :      2.56s CPU      2.58s WALL (       5 calls)
     sum_band     :      0.59s CPU      0.59s WALL (       5 calls)
     v_of_rho     :      0.14s CPU      0.14s WALL (       5 calls)
     newd         :      0.04s CPU      0.04s WALL (       5 calls)
     mix_rho      :      0.00s CPU      0.01s WALL (       5 calls)

     Called by c_bands:
     init_us_2    :      0.10s CPU      0.13s WALL (     455 calls)
     cegterg      :      2.36s CPU      2.38s WALL (     175 calls)

     Called by *egterg:
     h_psi        :      2.55s CPU      2.57s WALL (     524 calls)
     s_psi        :      0.03s CPU      0.03s WALL (     524 calls)
     g_psi        :      0.02s CPU      0.02s WALL (     314 calls)
     cdiaghg      :      0.03s CPU      0.02s WALL (     454 calls)

     Called by h_psi:
     add_vuspsi   :      0.02s CPU      0.03s WALL (     524 calls)

     General routines
     calbec       :      0.06s CPU      0.06s WALL (     769 calls)
     fft          :      0.08s CPU      0.08s WALL (      92 calls)
     fftw         :      2.68s CPU      2.68s WALL (    4802 calls)
     davcio       :      0.00s CPU      0.00s WALL (      35 calls)
 
     Parallel routines
     fft_scatter  :      0.16s CPU      0.17s WALL (    4894 calls)

     PAW routines
     PAW_pot      :      0.44s CPU      0.44s WALL (       5 calls)
     PAW_symme    :      0.00s CPU      0.00s WALL (      10 calls)
 
     PWSCF        :     4.93s CPU         5.02s WALL

 
   This run was terminated on:  10:28:43   1May2015            

=------------------------------------------------------------------------------=
   JOB DONE.
=------------------------------------------------------------------------------=
