
     Program PWSCF v.5.1 starts on  1May2015 at 10:28:28 

     This program is part of the open-source Quantum ESPRESSO suite
     for quantum simulation of materials; please cite
         "P. Giannozzi et al., J. Phys.:Condens. Matter 21 395502 (2009);
          URL http://www.quantum-espresso.org", 
     in publications or presentations arising from this work. More details at
     http://www.quantum-espresso.org/quote

     Parallel version (MPI), running on     1 processors
     Waiting for input...
     Reading input from standard input
Warning: card &IONS ignored
Warning: card / ignored
Warning: card &CELL ignored
Warning: card / ignored

     Current dimensions of program PWSCF are:
     Max number of different atomic species (ntypx) = 10
     Max number of k-points (npk) =  40000
     Max angular momentum in pseudopotentials (lmaxx) =  3
               file Si.pbe-n-kjpaw_psl.0.1.UPF: wavefunction(s)  3S renormalized

     Subspace diagonalization in iterative solution of the eigenvalue problem:
     a serial algorithm will be used

 
     G-vector sticks info
     --------------------
     sticks:   dense  smooth     PW     G-vecs:    dense   smooth      PW
     Sum         745     745    235                13539    13539    2277
 


     bravais-lattice index     =            2
     lattice parameter (alat)  =      10.4200  a.u.
     unit-cell volume          =     282.8415 (a.u.)^3
     number of atoms/cell      =            2
     number of atomic types    =            1
     number of electrons       =         8.00
     number of Kohn-Sham states=            4
     kinetic-energy cutoff     =      50.0000  Ry
     charge density cutoff     =     200.0000  Ry
     convergence threshold     =      1.0E-06
     mixing beta               =       0.7000
     number of iterations used =            8  plain     mixing
     Exchange-correlation      =  SLA  PW   PBX  PBC ( 1  4  3  4 0)

     celldm(1)=  10.420000  celldm(2)=   0.000000  celldm(3)=   0.000000
     celldm(4)=   0.000000  celldm(5)=   0.000000  celldm(6)=   0.000000

     crystal axes: (cart. coord. in units of alat)
               a(1) = (  -0.500000   0.000000   0.500000 )  
               a(2) = (   0.000000   0.500000   0.500000 )  
               a(3) = (  -0.500000   0.500000   0.000000 )  

     reciprocal axes: (cart. coord. in units 2 pi/alat)
               b(1) = ( -1.000000 -1.000000  1.000000 )  
               b(2) = (  1.000000  1.000000  1.000000 )  
               b(3) = ( -1.000000  1.000000 -1.000000 )  


     PseudoPot. # 1 for Si read from file:
     ./Si.pbe-n-kjpaw_psl.0.1.UPF
     MD5 check sum: b9d333a40e496bef61db012f150758bf
     Pseudo is Projector augmented-wave + core cor, Zval =  4.0
     Generated using "atomic" code by A. Dal Corso  v.5.0.2 svn rev. 9415
     Shape of augmentation charge: PSQ
     Using radial grid of 1141 points,  4 beta functions with: 
                l(1) =   0
                l(2) =   0
                l(3) =   1
                l(4) =   1
     Q(r) pseudized with 0 coefficients 


     atomic species   valence    mass     pseudopotential
        Si             4.00    28.05500     Si( 1.00)

     48 Sym. Ops., with inversion, found (24 have fractional translation)



   Cartesian axes

     site n.     atom                  positions (alat units)
         1           Si  tau(   1) = (   0.0000000   0.0000000   0.0000000  )
         2           Si  tau(   2) = (  -0.2500000   0.2500000   0.2500000  )

     number of k points=    35
                       cart. coord. in units 2pi/alat
        k(    1) = (   0.0000000   0.0000000   0.0000000), wk =   0.0027435
        k(    2) = (  -0.1111111   0.1111111  -0.1111111), wk =   0.0219479
        k(    3) = (  -0.2222222   0.2222222  -0.2222222), wk =   0.0219479
        k(    4) = (  -0.3333333   0.3333333  -0.3333333), wk =   0.0219479
        k(    5) = (  -0.4444444   0.4444444  -0.4444444), wk =   0.0219479
        k(    6) = (   0.0000000   0.2222222   0.0000000), wk =   0.0164609
        k(    7) = (  -0.1111111   0.3333333  -0.1111111), wk =   0.0658436
        k(    8) = (  -0.2222222   0.4444444  -0.2222222), wk =   0.0658436
        k(    9) = (  -0.3333333   0.5555556  -0.3333333), wk =   0.0658436
        k(   10) = (   0.5555556  -0.3333333   0.5555556), wk =   0.0658436
        k(   11) = (   0.4444444  -0.2222222   0.4444444), wk =   0.0658436
        k(   12) = (   0.3333333  -0.1111111   0.3333333), wk =   0.0658436
        k(   13) = (   0.2222222  -0.0000000   0.2222222), wk =   0.0329218
        k(   14) = (   0.0000000   0.4444444   0.0000000), wk =   0.0164609
        k(   15) = (  -0.1111111   0.5555556  -0.1111111), wk =   0.0658436
        k(   16) = (  -0.2222222   0.6666667  -0.2222222), wk =   0.0658436
        k(   17) = (   0.6666667  -0.2222222   0.6666667), wk =   0.0658436
        k(   18) = (   0.5555556  -0.1111111   0.5555556), wk =   0.0658436
        k(   19) = (   0.4444444   0.0000000   0.4444444), wk =   0.0329218
        k(   20) = (   0.0000000   0.6666667   0.0000000), wk =   0.0164609
        k(   21) = (  -0.1111111   0.7777778  -0.1111111), wk =   0.0658436
        k(   22) = (   0.7777778  -0.1111111   0.7777778), wk =   0.0658436
        k(   23) = (   0.6666667  -0.0000000   0.6666667), wk =   0.0329218
        k(   24) = (   0.0000000   0.8888889   0.0000000), wk =   0.0164609
        k(   25) = (   0.8888889   0.0000000   0.8888889), wk =   0.0329218
        k(   26) = (  -0.2222222   0.4444444   0.0000000), wk =   0.0658436
        k(   27) = (  -0.3333333   0.5555556  -0.1111111), wk =   0.1316872
        k(   28) = (   0.5555556  -0.3333333   0.7777778), wk =   0.1316872
        k(   29) = (  -0.2222222   0.6666667   0.0000000), wk =   0.0658436
        k(   30) = (   0.6666667  -0.2222222   0.8888889), wk =   0.1316872
        k(   31) = (   0.5555556  -0.1111111   0.7777778), wk =   0.1316872
        k(   32) = (   0.4444444   0.0000000   0.6666667), wk =   0.0658436
        k(   33) = (   0.7777778  -0.1111111   1.0000000), wk =   0.0658436
        k(   34) = (   0.6666667  -0.0000000   0.8888889), wk =   0.0658436
        k(   35) = (   0.5555556  -0.1111111   1.0000000), wk =   0.0658436

     Dense  grid:    13539 G-vectors     FFT dimensions: (  36,  36,  36)

     Largest allocated arrays     est. size (Mb)     dimensions
        Kohn-Sham Wavefunctions         0.10 Mb     (    1707,    4)
        NL pseudopotentials             0.42 Mb     (    1707,   16)
        Each V/rho on FFT grid          0.71 Mb     (   46656)
        Each G-vector array             0.10 Mb     (   13539)
        G-vector shells                 0.00 Mb     (     185)
     Largest temporary arrays     est. size (Mb)     dimensions
        Auxiliary wavefunctions         0.42 Mb     (    1707,   16)
        Each subspace H/S matrix        0.00 Mb     (      16,   16)
        Each <psi_i|beta_j> matrix      0.00 Mb     (      16,    4)
        Arrays for rho mixing           5.70 Mb     (   46656,    8)

     Check: negative/imaginary core charge=   -0.000001    0.000000

     Initial potential from superposition of free atoms

     starting charge    7.99888, renormalised to    8.00000
     Starting wfc are    8 randomized atomic wfcs
     Checking if some PAW data can be deallocated... 

     total cpu time spent up to now is        0.9 secs

     per-process dynamical memory:    14.6 Mb

     Self-consistent Calculation

     iteration #  1     ecut=    50.00 Ry     beta=0.70
     Davidson diagonalization with overlap
     ethr =  1.00E-02,  avg # of iterations =  2.0

     Threshold (ethr) on eigenvalues was too large:
     Diagonalizing with lowered threshold

     Davidson diagonalization with overlap
     ethr =  6.66E-04,  avg # of iterations =  1.1

     total cpu time spent up to now is        2.3 secs

     total energy              =     -93.45165861 Ry
     Harris-Foulkes estimate   =     -93.46347666 Ry
     estimated scf accuracy    <       0.05273320 Ry

     iteration #  2     ecut=    50.00 Ry     beta=0.70
     Davidson diagonalization with overlap
     ethr =  6.59E-04,  avg # of iterations =  1.0

     total cpu time spent up to now is        3.0 secs

     total energy              =     -93.45338480 Ry
     Harris-Foulkes estimate   =     -93.45353172 Ry
     estimated scf accuracy    <       0.00245481 Ry

     iteration #  3     ecut=    50.00 Ry     beta=0.70
     Davidson diagonalization with overlap
     ethr =  3.07E-05,  avg # of iterations =  1.8

     total cpu time spent up to now is        3.7 secs

     total energy              =     -93.45362778 Ry
     Harris-Foulkes estimate   =     -93.45364206 Ry
     estimated scf accuracy    <       0.00004504 Ry

     iteration #  4     ecut=    50.00 Ry     beta=0.70
     Davidson diagonalization with overlap
     ethr =  5.63E-07,  avg # of iterations =  3.2

     total cpu time spent up to now is        4.7 secs

     End of self-consistent calculation

          k = 0.0000 0.0000 0.0000 (  1687 PWs)   bands (ev):

    -5.9185   5.7386   5.7386   5.7386

          k =-0.1111 0.1111-0.1111 (  1705 PWs)   bands (ev):

    -5.7631   4.3988   5.5120   5.5120

          k =-0.2222 0.2222-0.2222 (  1684 PWs)   bands (ev):

    -5.3073   2.3792   5.1028   5.1028

          k =-0.3333 0.3333-0.3333 (  1688 PWs)   bands (ev):

    -4.5986   0.5344   4.7738   4.7738

          k =-0.4444 0.4444-0.4444 (  1685 PWs)   bands (ev):

    -3.8504  -0.7989   4.6016   4.6016

          k = 0.0000 0.2222 0.0000 (  1703 PWs)   bands (ev):

    -5.7109   4.5811   5.0963   5.0963

          k =-0.1111 0.3333-0.1111 (  1684 PWs)   bands (ev):

    -5.3532   2.9607   4.6409   4.7511

          k =-0.2222 0.4444-0.2222 (  1679 PWs)   bands (ev):

    -4.7196   1.1254   4.2587   4.3440

          k =-0.3333 0.5556-0.3333 (  1685 PWs)   bands (ev):

    -3.9337  -0.3972   3.8383   4.2607

          k = 0.5556-0.3333 0.5556 (  1691 PWs)   bands (ev):

    -3.5793  -0.9382   3.5925   4.3916

          k = 0.4444-0.2222 0.4444 (  1689 PWs)   bands (ev):

    -4.1975   0.0575   3.5672   4.7070

          k = 0.3333-0.1111 0.3333 (  1690 PWs)   bands (ev):

    -4.9601   1.7164   3.8029   5.1386

          k = 0.2222-0.0000 0.2222 (  1707 PWs)   bands (ev):

    -5.5068   3.4201   4.4421   5.5179

          k = 0.0000 0.4444 0.0000 (  1704 PWs)   bands (ev):

    -5.0941   2.6945   4.1414   4.1414

          k =-0.1111 0.5556-0.1111 (  1689 PWs)   bands (ev):

    -4.5474   1.4153   3.5347   3.8106

          k =-0.2222 0.6667-0.2222 (  1689 PWs)   bands (ev):

    -3.7839   0.0125   2.8177   3.7138

          k = 0.6667-0.2222 0.6667 (  1698 PWs)   bands (ev):

    -3.1672  -0.8765   2.3182   3.8604

          k = 0.5556-0.1111 0.5556 (  1688 PWs)   bands (ev):

    -3.5559  -0.3310   2.1535   4.2241

          k = 0.4444 0.0000 0.4444 (  1680 PWs)   bands (ev):

    -4.3394   0.8606   2.5360   4.7226

          k = 0.0000 0.6667 0.0000 (  1680 PWs)   bands (ev):

    -4.0877   0.7629   3.4246   3.4246

          k =-0.1111 0.7778-0.1111 (  1685 PWs)   bands (ev):

    -3.3792  -0.2500   2.7392   3.2722

          k = 0.7778-0.1111 0.7778 (  1690 PWs)   bands (ev):

    -2.6258  -1.1083   1.8836   3.3740

          k = 0.6667-0.0000 0.6667 (  1700 PWs)   bands (ev):

    -2.7981  -0.9188   1.5393   3.7141

          k = 0.0000 0.8889 0.0000 (  1700 PWs)   bands (ev):

    -2.7290  -1.0813   3.0522   3.0522

          k = 0.8889 0.0000 0.8889 (  1686 PWs)   bands (ev):

    -1.9927  -1.8226   2.4771   3.0879

          k =-0.2222 0.4444 0.0000 (  1681 PWs)   bands (ev):

    -4.9020   1.9744   3.4806   4.6139

          k =-0.3333 0.5556-0.1111 (  1693 PWs)   bands (ev):

    -4.1981   0.5466   2.8827   4.2006

          k = 0.5556-0.3333 0.7778 (  1686 PWs)   bands (ev):

    -3.4435  -0.6766   2.6836   3.8960

          k =-0.2222 0.6667 0.0000 (  1689 PWs)   bands (ev):

    -3.9222   0.4750   2.7975   3.4571

          k = 0.6667-0.2222 0.8889 (  1679 PWs)   bands (ev):

    -3.1339  -0.5639   2.1612   3.1689

          k = 0.5556-0.1111 0.7778 (  1689 PWs)   bands (ev):

    -2.7918  -0.9637   1.7938   3.2747

          k = 0.4444 0.0000 0.6667 (  1689 PWs)   bands (ev):

    -3.4564  -0.1989   1.9390   3.6891

          k = 0.7778-0.1111 1.0000 (  1676 PWs)   bands (ev):

    -2.6211  -1.1011   2.5238   2.7272

          k = 0.6667-0.0000 0.8889 (  1688 PWs)   bands (ev):

    -2.1305  -1.5407   1.8458   2.8102

          k = 0.5556-0.1111 1.0000 (  1691 PWs)   bands (ev):

    -2.3645  -1.2444   1.8804   2.4946

     highest occupied level (ev):     5.7386

!    total energy              =     -93.45365702 Ry
     Harris-Foulkes estimate   =     -93.45365731 Ry
     estimated scf accuracy    <       0.00000079 Ry

     total all-electron energy =     -1160.145393 Ry

     The total energy is the sum of the following terms:

     one-electron contribution =       5.37895506 Ry
     hartree contribution      =       1.13928666 Ry
     xc contribution           =     -12.20215197 Ry
     ewald contribution        =     -16.54294988 Ry
     one-center paw contrib.   =     -71.22679689 Ry

     convergence has been achieved in   4 iterations

     Forces acting on atoms (Ry/au):

     atom    1 type  1   force =     0.00000000    0.00000000    0.00000000
     atom    2 type  1   force =    -0.00000000   -0.00000000   -0.00000000

     Total force =     0.000000     Total SCF correction =     0.000000


     entering subroutine stress ...

          total   stress  (Ry/bohr**3)                   (kbar)     P=  -21.58
  -0.00014666   0.00000000  -0.00000000        -21.58      0.00     -0.00
   0.00000000  -0.00014666  -0.00000000          0.00    -21.58     -0.00
  -0.00000000  -0.00000000  -0.00014666         -0.00     -0.00    -21.58


     Writing output data file pwscf.save
 
     init_run     :      0.73s CPU      0.74s WALL (       1 calls)
     electrons    :      3.77s CPU      3.81s WALL (       1 calls)
     forces       :      0.08s CPU      0.08s WALL (       1 calls)
     stress       :      0.26s CPU      0.26s WALL (       1 calls)

     Called by init_run:
     wfcinit      :      0.39s CPU      0.39s WALL (       1 calls)
     potinit      :      0.12s CPU      0.12s WALL (       1 calls)

     Called by electrons:
     c_bands      :      2.65s CPU      2.66s WALL (       5 calls)
     sum_band     :      0.60s CPU      0.61s WALL (       5 calls)
     v_of_rho     :      0.14s CPU      0.14s WALL (       5 calls)
     newd         :      0.05s CPU      0.05s WALL (       5 calls)
     mix_rho      :      0.01s CPU      0.01s WALL (       5 calls)

     Called by c_bands:
     init_us_2    :      0.15s CPU      0.13s WALL (     455 calls)
     cegterg      :      2.44s CPU      2.46s WALL (     175 calls)

     Called by *egterg:
     h_psi        :      2.63s CPU      2.64s WALL (     527 calls)
     s_psi        :      0.03s CPU      0.03s WALL (     527 calls)
     g_psi        :      0.02s CPU      0.02s WALL (     317 calls)
     cdiaghg      :      0.01s CPU      0.02s WALL (     457 calls)

     Called by h_psi:
     add_vuspsi   :      0.03s CPU      0.03s WALL (     527 calls)

     General routines
     calbec       :      0.05s CPU      0.06s WALL (     772 calls)
     fft          :      0.08s CPU      0.08s WALL (      92 calls)
     fftw         :      2.73s CPU      2.77s WALL (    4820 calls)
     davcio       :      0.00s CPU      0.00s WALL (      35 calls)
 
     Parallel routines
     fft_scatter  :      0.18s CPU      0.18s WALL (    4912 calls)

     PAW routines
     PAW_pot      :      0.45s CPU      0.45s WALL (       5 calls)
     PAW_symme    :      0.00s CPU      0.00s WALL (      10 calls)
 
     PWSCF        :     5.04s CPU         5.14s WALL

 
   This run was terminated on:  10:28:33   1May2015            

=------------------------------------------------------------------------------=
   JOB DONE.
=------------------------------------------------------------------------------=
