
     Program PWSCF v.5.1 starts on  1May2015 at 10:27:40 

     This program is part of the open-source Quantum ESPRESSO suite
     for quantum simulation of materials; please cite
         "P. Giannozzi et al., J. Phys.:Condens. Matter 21 395502 (2009);
          URL http://www.quantum-espresso.org", 
     in publications or presentations arising from this work. More details at
     http://www.quantum-espresso.org/quote

     Parallel version (MPI), running on     1 processors
     Waiting for input...
     Reading input from standard input
Warning: card &IONS ignored
Warning: card / ignored
Warning: card &CELL ignored
Warning: card / ignored

     Current dimensions of program PWSCF are:
     Max number of different atomic species (ntypx) = 10
     Max number of k-points (npk) =  40000
     Max angular momentum in pseudopotentials (lmaxx) =  3
               file Si.pbe-n-kjpaw_psl.0.1.UPF: wavefunction(s)  3S renormalized

     Subspace diagonalization in iterative solution of the eigenvalue problem:
     a serial algorithm will be used

 
     G-vector sticks info
     --------------------
     sticks:   dense  smooth     PW     G-vecs:    dense   smooth      PW
     Sum         745     745    223                13323    13323    2229
 


     bravais-lattice index     =            2
     lattice parameter (alat)  =      10.3300  a.u.
     unit-cell volume          =     275.5757 (a.u.)^3
     number of atoms/cell      =            2
     number of atomic types    =            1
     number of electrons       =         8.00
     number of Kohn-Sham states=            4
     kinetic-energy cutoff     =      50.0000  Ry
     charge density cutoff     =     200.0000  Ry
     convergence threshold     =      1.0E-06
     mixing beta               =       0.7000
     number of iterations used =            8  plain     mixing
     Exchange-correlation      =  SLA  PW   PBX  PBC ( 1  4  3  4 0)

     celldm(1)=  10.330000  celldm(2)=   0.000000  celldm(3)=   0.000000
     celldm(4)=   0.000000  celldm(5)=   0.000000  celldm(6)=   0.000000

     crystal axes: (cart. coord. in units of alat)
               a(1) = (  -0.500000   0.000000   0.500000 )  
               a(2) = (   0.000000   0.500000   0.500000 )  
               a(3) = (  -0.500000   0.500000   0.000000 )  

     reciprocal axes: (cart. coord. in units 2 pi/alat)
               b(1) = ( -1.000000 -1.000000  1.000000 )  
               b(2) = (  1.000000  1.000000  1.000000 )  
               b(3) = ( -1.000000  1.000000 -1.000000 )  


     PseudoPot. # 1 for Si read from file:
     ./Si.pbe-n-kjpaw_psl.0.1.UPF
     MD5 check sum: b9d333a40e496bef61db012f150758bf
     Pseudo is Projector augmented-wave + core cor, Zval =  4.0
     Generated using "atomic" code by A. Dal Corso  v.5.0.2 svn rev. 9415
     Shape of augmentation charge: PSQ
     Using radial grid of 1141 points,  4 beta functions with: 
                l(1) =   0
                l(2) =   0
                l(3) =   1
                l(4) =   1
     Q(r) pseudized with 0 coefficients 


     atomic species   valence    mass     pseudopotential
        Si             4.00    28.05500     Si( 1.00)

     48 Sym. Ops., with inversion, found (24 have fractional translation)



   Cartesian axes

     site n.     atom                  positions (alat units)
         1           Si  tau(   1) = (   0.0000000   0.0000000   0.0000000  )
         2           Si  tau(   2) = (  -0.2500000   0.2500000   0.2500000  )

     number of k points=    35
                       cart. coord. in units 2pi/alat
        k(    1) = (   0.0000000   0.0000000   0.0000000), wk =   0.0027435
        k(    2) = (  -0.1111111   0.1111111  -0.1111111), wk =   0.0219479
        k(    3) = (  -0.2222222   0.2222222  -0.2222222), wk =   0.0219479
        k(    4) = (  -0.3333333   0.3333333  -0.3333333), wk =   0.0219479
        k(    5) = (  -0.4444444   0.4444444  -0.4444444), wk =   0.0219479
        k(    6) = (   0.0000000   0.2222222   0.0000000), wk =   0.0164609
        k(    7) = (  -0.1111111   0.3333333  -0.1111111), wk =   0.0658436
        k(    8) = (  -0.2222222   0.4444444  -0.2222222), wk =   0.0658436
        k(    9) = (  -0.3333333   0.5555556  -0.3333333), wk =   0.0658436
        k(   10) = (   0.5555556  -0.3333333   0.5555556), wk =   0.0658436
        k(   11) = (   0.4444444  -0.2222222   0.4444444), wk =   0.0658436
        k(   12) = (   0.3333333  -0.1111111   0.3333333), wk =   0.0658436
        k(   13) = (   0.2222222  -0.0000000   0.2222222), wk =   0.0329218
        k(   14) = (   0.0000000   0.4444444   0.0000000), wk =   0.0164609
        k(   15) = (  -0.1111111   0.5555556  -0.1111111), wk =   0.0658436
        k(   16) = (  -0.2222222   0.6666667  -0.2222222), wk =   0.0658436
        k(   17) = (   0.6666667  -0.2222222   0.6666667), wk =   0.0658436
        k(   18) = (   0.5555556  -0.1111111   0.5555556), wk =   0.0658436
        k(   19) = (   0.4444444   0.0000000   0.4444444), wk =   0.0329218
        k(   20) = (   0.0000000   0.6666667   0.0000000), wk =   0.0164609
        k(   21) = (  -0.1111111   0.7777778  -0.1111111), wk =   0.0658436
        k(   22) = (   0.7777778  -0.1111111   0.7777778), wk =   0.0658436
        k(   23) = (   0.6666667  -0.0000000   0.6666667), wk =   0.0329218
        k(   24) = (   0.0000000   0.8888889   0.0000000), wk =   0.0164609
        k(   25) = (   0.8888889   0.0000000   0.8888889), wk =   0.0329218
        k(   26) = (  -0.2222222   0.4444444   0.0000000), wk =   0.0658436
        k(   27) = (  -0.3333333   0.5555556  -0.1111111), wk =   0.1316872
        k(   28) = (   0.5555556  -0.3333333   0.7777778), wk =   0.1316872
        k(   29) = (  -0.2222222   0.6666667   0.0000000), wk =   0.0658436
        k(   30) = (   0.6666667  -0.2222222   0.8888889), wk =   0.1316872
        k(   31) = (   0.5555556  -0.1111111   0.7777778), wk =   0.1316872
        k(   32) = (   0.4444444   0.0000000   0.6666667), wk =   0.0658436
        k(   33) = (   0.7777778  -0.1111111   1.0000000), wk =   0.0658436
        k(   34) = (   0.6666667  -0.0000000   0.8888889), wk =   0.0658436
        k(   35) = (   0.5555556  -0.1111111   1.0000000), wk =   0.0658436

     Dense  grid:    13323 G-vectors     FFT dimensions: (  36,  36,  36)

     Largest allocated arrays     est. size (Mb)     dimensions
        Kohn-Sham Wavefunctions         0.10 Mb     (    1667,    4)
        NL pseudopotentials             0.41 Mb     (    1667,   16)
        Each V/rho on FFT grid          0.71 Mb     (   46656)
        Each G-vector array             0.10 Mb     (   13323)
        G-vector shells                 0.00 Mb     (     182)
     Largest temporary arrays     est. size (Mb)     dimensions
        Auxiliary wavefunctions         0.41 Mb     (    1667,   16)
        Each subspace H/S matrix        0.00 Mb     (      16,   16)
        Each <psi_i|beta_j> matrix      0.00 Mb     (      16,    4)
        Arrays for rho mixing           5.70 Mb     (   46656,    8)

     Check: negative/imaginary core charge=   -0.000001    0.000000

     Initial potential from superposition of free atoms

     starting charge    7.99888, renormalised to    8.00000
     Starting wfc are    8 randomized atomic wfcs
     Checking if some PAW data can be deallocated... 

     total cpu time spent up to now is        0.9 secs

     per-process dynamical memory:    14.5 Mb

     Self-consistent Calculation

     iteration #  1     ecut=    50.00 Ry     beta=0.70
     Davidson diagonalization with overlap
     ethr =  1.00E-02,  avg # of iterations =  2.0

     Threshold (ethr) on eigenvalues was too large:
     Diagonalizing with lowered threshold

     Davidson diagonalization with overlap
     ethr =  6.96E-04,  avg # of iterations =  1.0

     total cpu time spent up to now is        2.2 secs

     total energy              =     -93.45197113 Ry
     Harris-Foulkes estimate   =     -93.46486718 Ry
     estimated scf accuracy    <       0.05504914 Ry

     iteration #  2     ecut=    50.00 Ry     beta=0.70
     Davidson diagonalization with overlap
     ethr =  6.88E-04,  avg # of iterations =  1.0

     total cpu time spent up to now is        2.9 secs

     total energy              =     -93.45391147 Ry
     Harris-Foulkes estimate   =     -93.45405152 Ry
     estimated scf accuracy    <       0.00245033 Ry

     iteration #  3     ecut=    50.00 Ry     beta=0.70
     Davidson diagonalization with overlap
     ethr =  3.06E-05,  avg # of iterations =  2.0

     total cpu time spent up to now is        3.6 secs

     total energy              =     -93.45418123 Ry
     Harris-Foulkes estimate   =     -93.45419894 Ry
     estimated scf accuracy    <       0.00005077 Ry

     iteration #  4     ecut=    50.00 Ry     beta=0.70
     Davidson diagonalization with overlap
     ethr =  6.35E-07,  avg # of iterations =  2.9

     total cpu time spent up to now is        4.5 secs

     total energy              =     -93.45420830 Ry
     Harris-Foulkes estimate   =     -93.45420917 Ry
     estimated scf accuracy    <       0.00000233 Ry

     iteration #  5     ecut=    50.00 Ry     beta=0.70
     Davidson diagonalization with overlap
     ethr =  2.91E-08,  avg # of iterations =  2.7

     total cpu time spent up to now is        5.4 secs

     End of self-consistent calculation

          k = 0.0000 0.0000 0.0000 (  1639 PWs)   bands (ev):

    -5.8258   6.0064   6.0064   6.0064

          k =-0.1111 0.1111-0.1111 (  1660 PWs)   bands (ev):

    -5.6669   4.6644   5.7734   5.7734

          k =-0.2222 0.2222-0.2222 (  1651 PWs)   bands (ev):

    -5.2002   2.6118   5.3555   5.3555

          k =-0.3333 0.3333-0.3333 (  1634 PWs)   bands (ev):

    -4.4730   0.7281   5.0210   5.0210

          k =-0.4444 0.4444-0.4444 (  1667 PWs)   bands (ev):

    -3.6999  -0.6411   4.8465   4.8465

          k = 0.0000 0.2222 0.0000 (  1651 PWs)   bands (ev):

    -5.6134   4.8757   5.3438   5.3438

          k =-0.1111 0.3333-0.1111 (  1635 PWs)   bands (ev):

    -5.2473   3.2176   4.8778   5.0038

          k =-0.2222 0.4444-0.2222 (  1644 PWs)   bands (ev):

    -4.5979   1.3402   4.5037   4.5760

          k =-0.3333 0.5556-0.3333 (  1643 PWs)   bands (ev):

    -3.7886  -0.2216   4.0742   4.4932

          k = 0.5556-0.3333 0.5556 (  1651 PWs)   bands (ev):

    -3.4201  -0.7806   3.8208   4.6294

          k = 0.4444-0.2222 0.4444 (  1642 PWs)   bands (ev):

    -4.0609   0.2457   3.7904   4.9536

          k = 0.3333-0.1111 0.3333 (  1643 PWs)   bands (ev):

    -4.8445   1.9456   4.0241   5.3958

          k = 0.2222-0.0000 0.2222 (  1642 PWs)   bands (ev):

    -5.4045   3.6855   4.6701   5.7836

          k = 0.0000 0.4444 0.0000 (  1636 PWs)   bands (ev):

    -4.9824   2.9761   4.3656   4.3656

          k =-0.1111 0.5556-0.1111 (  1644 PWs)   bands (ev):

    -4.4225   1.6655   3.7478   4.0280

          k =-0.2222 0.6667-0.2222 (  1639 PWs)   bands (ev):

    -3.6383   0.2226   3.0169   3.9305

          k = 0.6667-0.2222 0.6667 (  1647 PWs)   bands (ev):

    -2.9994  -0.6973   2.5055   4.0821

          k = 0.5556-0.1111 0.5556 (  1641 PWs)   bands (ev):

    -3.4018  -0.1328   2.3311   4.4559

          k = 0.4444 0.0000 0.4444 (  1648 PWs)   bands (ev):

    -4.2081   1.0915   2.7151   4.9683

          k = 0.0000 0.6667 0.0000 (  1644 PWs)   bands (ev):

    -3.9524   1.0101   3.6331   3.6331

          k =-0.1111 0.7778-0.1111 (  1653 PWs)   bands (ev):

    -3.2264  -0.0247   2.9245   3.4779

          k = 0.7778-0.1111 0.7778 (  1644 PWs)   bands (ev):

    -2.4492  -0.9058   2.0407   3.5829

          k = 0.6667-0.0000 0.6667 (  1652 PWs)   bands (ev):

    -2.6226  -0.7159   1.6856   3.9319

          k = 0.0000 0.8889 0.0000 (  1652 PWs)   bands (ev):

    -2.5616  -0.8750   3.2529   3.2529

          k = 0.8889 0.0000 0.8889 (  1644 PWs)   bands (ev):

    -1.8044  -1.6345   2.6546   3.2897

          k =-0.2222 0.4444 0.0000 (  1642 PWs)   bands (ev):

    -4.7854   2.2277   3.6848   4.8579

          k =-0.3333 0.5556-0.1111 (  1638 PWs)   bands (ev):

    -4.0632   0.7639   3.0814   4.4305

          k = 0.5556-0.3333 0.7778 (  1638 PWs)   bands (ev):

    -3.2843  -0.4973   2.8860   4.1151

          k =-0.2222 0.6667 0.0000 (  1650 PWs)   bands (ev):

    -3.7819   0.7132   2.9851   3.6627

          k = 0.6667-0.2222 0.8889 (  1651 PWs)   bands (ev):

    -2.9712  -0.3517   2.3325   3.3642

          k = 0.5556-0.1111 0.7778 (  1648 PWs)   bands (ev):

    -2.6157  -0.7666   1.9540   3.4739

          k = 0.4444 0.0000 0.6667 (  1643 PWs)   bands (ev):

    -3.3014   0.0195   2.1005   3.9014

          k = 0.7778-0.1111 1.0000 (  1657 PWs)   bands (ev):

    -2.4489  -0.8927   2.7035   2.9105

          k = 0.6667-0.0000 0.8889 (  1646 PWs)   bands (ev):

    -1.9397  -1.3447   1.9991   2.9966

          k = 0.5556-0.1111 1.0000 (  1638 PWs)   bands (ev):

    -2.1807  -1.0377   2.0361   2.6666

     highest occupied level (ev):     6.0064

!    total energy              =     -93.45420912 Ry
     Harris-Foulkes estimate   =     -93.45420920 Ry
     estimated scf accuracy    <       0.00000008 Ry

     total all-electron energy =     -1160.145945 Ry

     The total energy is the sum of the following terms:

     one-electron contribution =       5.58064675 Ry
     hartree contribution      =       1.11535936 Ry
     xc contribution           =     -12.23220993 Ry
     ewald contribution        =     -16.68708013 Ry
     one-center paw contrib.   =     -71.23092517 Ry

     convergence has been achieved in   5 iterations

     Forces acting on atoms (Ry/au):

     atom    1 type  1   force =    -0.00000000   -0.00000000    0.00000000
     atom    2 type  1   force =     0.00000000    0.00000000    0.00000000

     Total force =     0.000000     Total SCF correction =     0.000000


     entering subroutine stress ...

          total   stress  (Ry/bohr**3)                   (kbar)     P=   -0.11
  -0.00000077   0.00000000  -0.00000000         -0.11      0.00     -0.00
   0.00000000  -0.00000077  -0.00000000          0.00     -0.11     -0.00
  -0.00000000  -0.00000000  -0.00000077         -0.00     -0.00     -0.11


     Writing output data file pwscf.save
 
     init_run     :      0.73s CPU      0.73s WALL (       1 calls)
     electrons    :      4.51s CPU      4.54s WALL (       1 calls)
     forces       :      0.07s CPU      0.08s WALL (       1 calls)
     stress       :      0.25s CPU      0.25s WALL (       1 calls)

     Called by init_run:
     wfcinit      :      0.39s CPU      0.39s WALL (       1 calls)
     potinit      :      0.12s CPU      0.12s WALL (       1 calls)

     Called by electrons:
     c_bands      :      3.17s CPU      3.19s WALL (       6 calls)
     sum_band     :      0.70s CPU      0.70s WALL (       6 calls)
     v_of_rho     :      0.16s CPU      0.17s WALL (       6 calls)
     newd         :      0.05s CPU      0.05s WALL (       6 calls)
     mix_rho      :      0.01s CPU      0.01s WALL (       6 calls)

     Called by c_bands:
     init_us_2    :      0.15s CPU      0.15s WALL (     525 calls)
     cegterg      :      2.93s CPU      2.96s WALL (     210 calls)

     Called by *egterg:
     h_psi        :      3.08s CPU      3.11s WALL (     654 calls)
     s_psi        :      0.04s CPU      0.03s WALL (     654 calls)
     g_psi        :      0.03s CPU      0.03s WALL (     409 calls)
     cdiaghg      :      0.02s CPU      0.02s WALL (     584 calls)

     Called by h_psi:
     add_vuspsi   :      0.04s CPU      0.04s WALL (     654 calls)

     General routines
     calbec       :      0.04s CPU      0.07s WALL (     934 calls)
     fft          :      0.09s CPU      0.09s WALL (     105 calls)
     fftw         :      3.29s CPU      3.24s WALL (    5850 calls)
     davcio       :      0.00s CPU      0.00s WALL (      35 calls)
 
     Parallel routines
     fft_scatter  :      0.19s CPU      0.20s WALL (    5955 calls)

     PAW routines
     PAW_pot      :      0.54s CPU      0.54s WALL (       6 calls)
     PAW_symme    :      0.00s CPU      0.00s WALL (      12 calls)
 
     PWSCF        :     5.75s CPU         5.87s WALL

 
   This run was terminated on:  10:27:46   1May2015            

=------------------------------------------------------------------------------=
   JOB DONE.
=------------------------------------------------------------------------------=
