
     Program PWSCF v.5.1 starts on  1May2015 at 10:28:44 

     This program is part of the open-source Quantum ESPRESSO suite
     for quantum simulation of materials; please cite
         "P. Giannozzi et al., J. Phys.:Condens. Matter 21 395502 (2009);
          URL http://www.quantum-espresso.org", 
     in publications or presentations arising from this work. More details at
     http://www.quantum-espresso.org/quote

     Parallel version (MPI), running on     1 processors
     Waiting for input...
     Reading input from standard input
Warning: card &IONS ignored
Warning: card / ignored
Warning: card &CELL ignored
Warning: card / ignored

     Current dimensions of program PWSCF are:
     Max number of different atomic species (ntypx) = 10
     Max number of k-points (npk) =  40000
     Max angular momentum in pseudopotentials (lmaxx) =  3
               file Si.pbe-n-kjpaw_psl.0.1.UPF: wavefunction(s)  3S renormalized

     Subspace diagonalization in iterative solution of the eigenvalue problem:
     a serial algorithm will be used

 
     G-vector sticks info
     --------------------
     sticks:   dense  smooth     PW     G-vecs:    dense   smooth      PW
     Sum         757     757    235                13803    13803    2277
 


     bravais-lattice index     =            2
     lattice parameter (alat)  =      10.4800  a.u.
     unit-cell volume          =     287.7556 (a.u.)^3
     number of atoms/cell      =            2
     number of atomic types    =            1
     number of electrons       =         8.00
     number of Kohn-Sham states=            4
     kinetic-energy cutoff     =      50.0000  Ry
     charge density cutoff     =     200.0000  Ry
     convergence threshold     =      1.0E-06
     mixing beta               =       0.7000
     number of iterations used =            8  plain     mixing
     Exchange-correlation      =  SLA  PW   PBX  PBC ( 1  4  3  4 0)

     celldm(1)=  10.480000  celldm(2)=   0.000000  celldm(3)=   0.000000
     celldm(4)=   0.000000  celldm(5)=   0.000000  celldm(6)=   0.000000

     crystal axes: (cart. coord. in units of alat)
               a(1) = (  -0.500000   0.000000   0.500000 )  
               a(2) = (   0.000000   0.500000   0.500000 )  
               a(3) = (  -0.500000   0.500000   0.000000 )  

     reciprocal axes: (cart. coord. in units 2 pi/alat)
               b(1) = ( -1.000000 -1.000000  1.000000 )  
               b(2) = (  1.000000  1.000000  1.000000 )  
               b(3) = ( -1.000000  1.000000 -1.000000 )  


     PseudoPot. # 1 for Si read from file:
     ./Si.pbe-n-kjpaw_psl.0.1.UPF
     MD5 check sum: b9d333a40e496bef61db012f150758bf
     Pseudo is Projector augmented-wave + core cor, Zval =  4.0
     Generated using "atomic" code by A. Dal Corso  v.5.0.2 svn rev. 9415
     Shape of augmentation charge: PSQ
     Using radial grid of 1141 points,  4 beta functions with: 
                l(1) =   0
                l(2) =   0
                l(3) =   1
                l(4) =   1
     Q(r) pseudized with 0 coefficients 


     atomic species   valence    mass     pseudopotential
        Si             4.00    28.05500     Si( 1.00)

     48 Sym. Ops., with inversion, found (24 have fractional translation)



   Cartesian axes

     site n.     atom                  positions (alat units)
         1           Si  tau(   1) = (   0.0000000   0.0000000   0.0000000  )
         2           Si  tau(   2) = (  -0.2500000   0.2500000   0.2500000  )

     number of k points=    35
                       cart. coord. in units 2pi/alat
        k(    1) = (   0.0000000   0.0000000   0.0000000), wk =   0.0027435
        k(    2) = (  -0.1111111   0.1111111  -0.1111111), wk =   0.0219479
        k(    3) = (  -0.2222222   0.2222222  -0.2222222), wk =   0.0219479
        k(    4) = (  -0.3333333   0.3333333  -0.3333333), wk =   0.0219479
        k(    5) = (  -0.4444444   0.4444444  -0.4444444), wk =   0.0219479
        k(    6) = (   0.0000000   0.2222222   0.0000000), wk =   0.0164609
        k(    7) = (  -0.1111111   0.3333333  -0.1111111), wk =   0.0658436
        k(    8) = (  -0.2222222   0.4444444  -0.2222222), wk =   0.0658436
        k(    9) = (  -0.3333333   0.5555556  -0.3333333), wk =   0.0658436
        k(   10) = (   0.5555556  -0.3333333   0.5555556), wk =   0.0658436
        k(   11) = (   0.4444444  -0.2222222   0.4444444), wk =   0.0658436
        k(   12) = (   0.3333333  -0.1111111   0.3333333), wk =   0.0658436
        k(   13) = (   0.2222222  -0.0000000   0.2222222), wk =   0.0329218
        k(   14) = (   0.0000000   0.4444444   0.0000000), wk =   0.0164609
        k(   15) = (  -0.1111111   0.5555556  -0.1111111), wk =   0.0658436
        k(   16) = (  -0.2222222   0.6666667  -0.2222222), wk =   0.0658436
        k(   17) = (   0.6666667  -0.2222222   0.6666667), wk =   0.0658436
        k(   18) = (   0.5555556  -0.1111111   0.5555556), wk =   0.0658436
        k(   19) = (   0.4444444   0.0000000   0.4444444), wk =   0.0329218
        k(   20) = (   0.0000000   0.6666667   0.0000000), wk =   0.0164609
        k(   21) = (  -0.1111111   0.7777778  -0.1111111), wk =   0.0658436
        k(   22) = (   0.7777778  -0.1111111   0.7777778), wk =   0.0658436
        k(   23) = (   0.6666667  -0.0000000   0.6666667), wk =   0.0329218
        k(   24) = (   0.0000000   0.8888889   0.0000000), wk =   0.0164609
        k(   25) = (   0.8888889   0.0000000   0.8888889), wk =   0.0329218
        k(   26) = (  -0.2222222   0.4444444   0.0000000), wk =   0.0658436
        k(   27) = (  -0.3333333   0.5555556  -0.1111111), wk =   0.1316872
        k(   28) = (   0.5555556  -0.3333333   0.7777778), wk =   0.1316872
        k(   29) = (  -0.2222222   0.6666667   0.0000000), wk =   0.0658436
        k(   30) = (   0.6666667  -0.2222222   0.8888889), wk =   0.1316872
        k(   31) = (   0.5555556  -0.1111111   0.7777778), wk =   0.1316872
        k(   32) = (   0.4444444   0.0000000   0.6666667), wk =   0.0658436
        k(   33) = (   0.7777778  -0.1111111   1.0000000), wk =   0.0658436
        k(   34) = (   0.6666667  -0.0000000   0.8888889), wk =   0.0658436
        k(   35) = (   0.5555556  -0.1111111   1.0000000), wk =   0.0658436

     Dense  grid:    13803 G-vectors     FFT dimensions: (  36,  36,  36)

     Largest allocated arrays     est. size (Mb)     dimensions
        Kohn-Sham Wavefunctions         0.11 Mb     (    1759,    4)
        NL pseudopotentials             0.43 Mb     (    1759,   16)
        Each V/rho on FFT grid          0.71 Mb     (   46656)
        Each G-vector array             0.11 Mb     (   13803)
        G-vector shells                 0.00 Mb     (     188)
     Largest temporary arrays     est. size (Mb)     dimensions
        Auxiliary wavefunctions         0.43 Mb     (    1759,   16)
        Each subspace H/S matrix        0.00 Mb     (      16,   16)
        Each <psi_i|beta_j> matrix      0.00 Mb     (      16,    4)
        Arrays for rho mixing           5.70 Mb     (   46656,    8)

     Check: negative/imaginary core charge=   -0.000001    0.000000

     Initial potential from superposition of free atoms

     starting charge    7.99888, renormalised to    8.00000
     Starting wfc are    8 randomized atomic wfcs
     Checking if some PAW data can be deallocated... 

     total cpu time spent up to now is        0.9 secs

     per-process dynamical memory:    14.9 Mb

     Self-consistent Calculation

     iteration #  1     ecut=    50.00 Ry     beta=0.70
     Davidson diagonalization with overlap
     ethr =  1.00E-02,  avg # of iterations =  2.0

     Threshold (ethr) on eigenvalues was too large:
     Diagonalizing with lowered threshold

     Davidson diagonalization with overlap
     ethr =  6.47E-04,  avg # of iterations =  1.1

     total cpu time spent up to now is        2.2 secs

     total energy              =     -93.45085684 Ry
     Harris-Foulkes estimate   =     -93.46198742 Ry
     estimated scf accuracy    <       0.05120396 Ry

     iteration #  2     ecut=    50.00 Ry     beta=0.70
     Davidson diagonalization with overlap
     ethr =  6.40E-04,  avg # of iterations =  1.0

     total cpu time spent up to now is        2.9 secs

     total energy              =     -93.45244854 Ry
     Harris-Foulkes estimate   =     -93.45259956 Ry
     estimated scf accuracy    <       0.00245990 Ry

     iteration #  3     ecut=    50.00 Ry     beta=0.70
     Davidson diagonalization with overlap
     ethr =  3.07E-05,  avg # of iterations =  1.8

     total cpu time spent up to now is        3.6 secs

     total energy              =     -93.45267538 Ry
     Harris-Foulkes estimate   =     -93.45268890 Ry
     estimated scf accuracy    <       0.00004251 Ry

     iteration #  4     ecut=    50.00 Ry     beta=0.70
     Davidson diagonalization with overlap
     ethr =  5.31E-07,  avg # of iterations =  3.1

     total cpu time spent up to now is        4.6 secs

     End of self-consistent calculation

          k = 0.0000 0.0000 0.0000 (  1759 PWs)   bands (ev):

    -5.9768   5.5672   5.5672   5.5672

          k =-0.1111 0.1111-0.1111 (  1732 PWs)   bands (ev):

    -5.8238   4.2270   5.3446   5.3446

          k =-0.2222 0.2222-0.2222 (  1727 PWs)   bands (ev):

    -5.3750   2.2289   4.9412   4.9412

          k =-0.3333 0.3333-0.3333 (  1730 PWs)   bands (ev):

    -4.6783   0.4096   4.6157   4.6157

          k =-0.4444 0.4444-0.4444 (  1712 PWs)   bands (ev):

    -3.9461  -0.9004   4.4452   4.4452

          k = 0.0000 0.2222 0.0000 (  1732 PWs)   bands (ev):

    -5.7723   4.3906   4.9378   4.9378

          k =-0.1111 0.3333-0.1111 (  1732 PWs)   bands (ev):

    -5.4200   2.7945   4.4893   4.5896

          k =-0.2222 0.4444-0.2222 (  1716 PWs)   bands (ev):

    -4.7968   0.9867   4.1021   4.1956

          k =-0.3333 0.5556-0.3333 (  1710 PWs)   bands (ev):

    -4.0259  -0.5103   3.6874   4.1120

          k = 0.5556-0.3333 0.5556 (  1724 PWs)   bands (ev):

    -3.6804  -1.0396   3.4466   4.2396

          k = 0.4444-0.2222 0.4444 (  1718 PWs)   bands (ev):

    -4.2843  -0.0637   3.4246   4.5494

          k = 0.3333-0.1111 0.3333 (  1722 PWs)   bands (ev):

    -5.0333   1.5684   3.6616   4.9741

          k = 0.2222-0.0000 0.2222 (  1743 PWs)   bands (ev):

    -5.5713   3.2486   4.2960   5.3479

          k = 0.0000 0.4444 0.0000 (  1716 PWs)   bands (ev):

    -5.1648   2.5131   3.9980   3.9980

          k =-0.1111 0.5556-0.1111 (  1711 PWs)   bands (ev):

    -4.6266   1.2540   3.3986   3.6716

          k =-0.2222 0.6667-0.2222 (  1718 PWs)   bands (ev):

    -3.8765  -0.1228   2.6907   3.5753

          k = 0.6667-0.2222 0.6667 (  1714 PWs)   bands (ev):

    -3.2741  -0.9920   2.1989   3.7187

          k = 0.5556-0.1111 0.5556 (  1729 PWs)   bands (ev):

    -3.6539  -0.4587   2.0405   4.0758

          k = 0.4444 0.0000 0.4444 (  1720 PWs)   bands (ev):

    -4.4228   0.7120   2.4215   4.5654

          k = 0.0000 0.6667 0.0000 (  1712 PWs)   bands (ev):

    -4.1736   0.6040   3.2914   3.2914

          k =-0.1111 0.7778-0.1111 (  1715 PWs)   bands (ev):

    -3.4767  -0.3945   2.6206   3.1408

          k = 0.7778-0.1111 0.7778 (  1713 PWs)   bands (ev):

    -2.7385  -1.2380   1.7833   3.2406

          k = 0.6667-0.0000 0.6667 (  1700 PWs)   bands (ev):

    -2.9099  -1.0490   1.4459   3.5749

          k = 0.0000 0.8889 0.0000 (  1720 PWs)   bands (ev):

    -2.8359  -1.2135   2.9240   2.9240

          k = 0.8889 0.0000 0.8889 (  1714 PWs)   bands (ev):

    -2.1132  -1.9430   2.3636   2.9591

          k =-0.2222 0.4444 0.0000 (  1722 PWs)   bands (ev):

    -4.9759   1.8110   3.3499   4.4579

          k =-0.3333 0.5556-0.1111 (  1715 PWs)   bands (ev):

    -4.2838   0.4064   2.7559   4.0535

          k = 0.5556-0.3333 0.7778 (  1725 PWs)   bands (ev):

    -3.5448  -0.7922   2.5546   3.7558

          k =-0.2222 0.6667 0.0000 (  1705 PWs)   bands (ev):

    -4.0114   0.3220   2.6776   3.3256

          k = 0.6667-0.2222 0.8889 (  1709 PWs)   bands (ev):

    -3.2377  -0.7000   2.0519   3.0438

          k = 0.5556-0.1111 0.7778 (  1718 PWs)   bands (ev):

    -2.9041  -1.0904   1.6917   3.1472

          k = 0.4444 0.0000 0.6667 (  1714 PWs)   bands (ev):

    -3.5551  -0.3391   1.8359   3.5532

          k = 0.7778-0.1111 1.0000 (  1709 PWs)   bands (ev):

    -2.7311  -1.2346   2.4089   2.6099

          k = 0.6667-0.0000 0.8889 (  1715 PWs)   bands (ev):

    -2.2523  -1.6662   1.7477   2.6910

          k = 0.5556-0.1111 1.0000 (  1719 PWs)   bands (ev):

    -2.4818  -1.3766   1.7809   2.3845

     highest occupied level (ev):     5.5672

!    total energy              =     -93.45270368 Ry
     Harris-Foulkes estimate   =     -93.45270390 Ry
     estimated scf accuracy    <       0.00000061 Ry

     total all-electron energy =     -1160.144440 Ry

     The total energy is the sum of the following terms:

     one-electron contribution =       5.24707327 Ry
     hartree contribution      =       1.15479266 Ry
     xc contribution           =     -12.18231756 Ry
     ewald contribution        =     -16.44823833 Ry
     one-center paw contrib.   =     -71.22401371 Ry

     convergence has been achieved in   4 iterations

     Forces acting on atoms (Ry/au):

     atom    1 type  1   force =     0.00000000    0.00000000    0.00000000
     atom    2 type  1   force =     0.00000000    0.00000000   -0.00000000

     Total force =     0.000000     Total SCF correction =     0.000000


     entering subroutine stress ...

          total   stress  (Ry/bohr**3)                   (kbar)     P=  -34.76
  -0.00023627   0.00000000   0.00000000        -34.76      0.00      0.00
   0.00000000  -0.00023627  -0.00000000          0.00    -34.76     -0.00
   0.00000000  -0.00000000  -0.00023627          0.00     -0.00    -34.76


     Writing output data file pwscf.save
 
     init_run     :      0.73s CPU      0.74s WALL (       1 calls)
     electrons    :      3.66s CPU      3.69s WALL (       1 calls)
     forces       :      0.08s CPU      0.08s WALL (       1 calls)
     stress       :      0.26s CPU      0.26s WALL (       1 calls)

     Called by init_run:
     wfcinit      :      0.39s CPU      0.39s WALL (       1 calls)
     potinit      :      0.12s CPU      0.12s WALL (       1 calls)

     Called by electrons:
     c_bands      :      2.57s CPU      2.59s WALL (       5 calls)
     sum_band     :      0.58s CPU      0.59s WALL (       5 calls)
     v_of_rho     :      0.14s CPU      0.14s WALL (       5 calls)
     newd         :      0.05s CPU      0.05s WALL (       5 calls)
     mix_rho      :      0.00s CPU      0.01s WALL (       5 calls)

     Called by c_bands:
     init_us_2    :      0.11s CPU      0.13s WALL (     455 calls)
     cegterg      :      2.37s CPU      2.38s WALL (     175 calls)

     Called by *egterg:
     h_psi        :      2.56s CPU      2.57s WALL (     522 calls)
     s_psi        :      0.02s CPU      0.03s WALL (     522 calls)
     g_psi        :      0.02s CPU      0.02s WALL (     312 calls)
     cdiaghg      :      0.02s CPU      0.02s WALL (     452 calls)

     Called by h_psi:
     add_vuspsi   :      0.03s CPU      0.03s WALL (     522 calls)

     General routines
     calbec       :      0.06s CPU      0.06s WALL (     767 calls)
     fft          :      0.08s CPU      0.08s WALL (      92 calls)
     fftw         :      2.68s CPU      2.68s WALL (    4794 calls)
     davcio       :      0.00s CPU      0.00s WALL (      35 calls)
 
     Parallel routines
     fft_scatter  :      0.17s CPU      0.17s WALL (    4886 calls)

     PAW routines
     PAW_pot      :      0.44s CPU      0.44s WALL (       5 calls)
     PAW_symme    :      0.00s CPU      0.00s WALL (      10 calls)
 
     PWSCF        :     4.92s CPU         5.04s WALL

 
   This run was terminated on:  10:28:49   1May2015            

=------------------------------------------------------------------------------=
   JOB DONE.
=------------------------------------------------------------------------------=
