
     Program PWSCF v.5.1 starts on  1May2015 at 10:28:49 

     This program is part of the open-source Quantum ESPRESSO suite
     for quantum simulation of materials; please cite
         "P. Giannozzi et al., J. Phys.:Condens. Matter 21 395502 (2009);
          URL http://www.quantum-espresso.org", 
     in publications or presentations arising from this work. More details at
     http://www.quantum-espresso.org/quote

     Parallel version (MPI), running on     1 processors
     Waiting for input...
     Reading input from standard input
Warning: card &IONS ignored
Warning: card / ignored
Warning: card &CELL ignored
Warning: card / ignored

     Current dimensions of program PWSCF are:
     Max number of different atomic species (ntypx) = 10
     Max number of k-points (npk) =  40000
     Max angular momentum in pseudopotentials (lmaxx) =  3
               file Si.pbe-n-kjpaw_psl.0.1.UPF: wavefunction(s)  3S renormalized

     Subspace diagonalization in iterative solution of the eigenvalue problem:
     a serial algorithm will be used

 
     G-vector sticks info
     --------------------
     sticks:   dense  smooth     PW     G-vecs:    dense   smooth      PW
     Sum         757     757    241                13803    13803    2397
 


     bravais-lattice index     =            2
     lattice parameter (alat)  =      10.5000  a.u.
     unit-cell volume          =     289.4062 (a.u.)^3
     number of atoms/cell      =            2
     number of atomic types    =            1
     number of electrons       =         8.00
     number of Kohn-Sham states=            4
     kinetic-energy cutoff     =      50.0000  Ry
     charge density cutoff     =     200.0000  Ry
     convergence threshold     =      1.0E-06
     mixing beta               =       0.7000
     number of iterations used =            8  plain     mixing
     Exchange-correlation      =  SLA  PW   PBX  PBC ( 1  4  3  4 0)

     celldm(1)=  10.500000  celldm(2)=   0.000000  celldm(3)=   0.000000
     celldm(4)=   0.000000  celldm(5)=   0.000000  celldm(6)=   0.000000

     crystal axes: (cart. coord. in units of alat)
               a(1) = (  -0.500000   0.000000   0.500000 )  
               a(2) = (   0.000000   0.500000   0.500000 )  
               a(3) = (  -0.500000   0.500000   0.000000 )  

     reciprocal axes: (cart. coord. in units 2 pi/alat)
               b(1) = ( -1.000000 -1.000000  1.000000 )  
               b(2) = (  1.000000  1.000000  1.000000 )  
               b(3) = ( -1.000000  1.000000 -1.000000 )  


     PseudoPot. # 1 for Si read from file:
     ./Si.pbe-n-kjpaw_psl.0.1.UPF
     MD5 check sum: b9d333a40e496bef61db012f150758bf
     Pseudo is Projector augmented-wave + core cor, Zval =  4.0
     Generated using "atomic" code by A. Dal Corso  v.5.0.2 svn rev. 9415
     Shape of augmentation charge: PSQ
     Using radial grid of 1141 points,  4 beta functions with: 
                l(1) =   0
                l(2) =   0
                l(3) =   1
                l(4) =   1
     Q(r) pseudized with 0 coefficients 


     atomic species   valence    mass     pseudopotential
        Si             4.00    28.05500     Si( 1.00)

     48 Sym. Ops., with inversion, found (24 have fractional translation)



   Cartesian axes

     site n.     atom                  positions (alat units)
         1           Si  tau(   1) = (   0.0000000   0.0000000   0.0000000  )
         2           Si  tau(   2) = (  -0.2500000   0.2500000   0.2500000  )

     number of k points=    35
                       cart. coord. in units 2pi/alat
        k(    1) = (   0.0000000   0.0000000   0.0000000), wk =   0.0027435
        k(    2) = (  -0.1111111   0.1111111  -0.1111111), wk =   0.0219479
        k(    3) = (  -0.2222222   0.2222222  -0.2222222), wk =   0.0219479
        k(    4) = (  -0.3333333   0.3333333  -0.3333333), wk =   0.0219479
        k(    5) = (  -0.4444444   0.4444444  -0.4444444), wk =   0.0219479
        k(    6) = (   0.0000000   0.2222222   0.0000000), wk =   0.0164609
        k(    7) = (  -0.1111111   0.3333333  -0.1111111), wk =   0.0658436
        k(    8) = (  -0.2222222   0.4444444  -0.2222222), wk =   0.0658436
        k(    9) = (  -0.3333333   0.5555556  -0.3333333), wk =   0.0658436
        k(   10) = (   0.5555556  -0.3333333   0.5555556), wk =   0.0658436
        k(   11) = (   0.4444444  -0.2222222   0.4444444), wk =   0.0658436
        k(   12) = (   0.3333333  -0.1111111   0.3333333), wk =   0.0658436
        k(   13) = (   0.2222222  -0.0000000   0.2222222), wk =   0.0329218
        k(   14) = (   0.0000000   0.4444444   0.0000000), wk =   0.0164609
        k(   15) = (  -0.1111111   0.5555556  -0.1111111), wk =   0.0658436
        k(   16) = (  -0.2222222   0.6666667  -0.2222222), wk =   0.0658436
        k(   17) = (   0.6666667  -0.2222222   0.6666667), wk =   0.0658436
        k(   18) = (   0.5555556  -0.1111111   0.5555556), wk =   0.0658436
        k(   19) = (   0.4444444   0.0000000   0.4444444), wk =   0.0329218
        k(   20) = (   0.0000000   0.6666667   0.0000000), wk =   0.0164609
        k(   21) = (  -0.1111111   0.7777778  -0.1111111), wk =   0.0658436
        k(   22) = (   0.7777778  -0.1111111   0.7777778), wk =   0.0658436
        k(   23) = (   0.6666667  -0.0000000   0.6666667), wk =   0.0329218
        k(   24) = (   0.0000000   0.8888889   0.0000000), wk =   0.0164609
        k(   25) = (   0.8888889   0.0000000   0.8888889), wk =   0.0329218
        k(   26) = (  -0.2222222   0.4444444   0.0000000), wk =   0.0658436
        k(   27) = (  -0.3333333   0.5555556  -0.1111111), wk =   0.1316872
        k(   28) = (   0.5555556  -0.3333333   0.7777778), wk =   0.1316872
        k(   29) = (  -0.2222222   0.6666667   0.0000000), wk =   0.0658436
        k(   30) = (   0.6666667  -0.2222222   0.8888889), wk =   0.1316872
        k(   31) = (   0.5555556  -0.1111111   0.7777778), wk =   0.1316872
        k(   32) = (   0.4444444   0.0000000   0.6666667), wk =   0.0658436
        k(   33) = (   0.7777778  -0.1111111   1.0000000), wk =   0.0658436
        k(   34) = (   0.6666667  -0.0000000   0.8888889), wk =   0.0658436
        k(   35) = (   0.5555556  -0.1111111   1.0000000), wk =   0.0658436

     Dense  grid:    13803 G-vectors     FFT dimensions: (  36,  36,  36)

     Largest allocated arrays     est. size (Mb)     dimensions
        Kohn-Sham Wavefunctions         0.11 Mb     (    1759,    4)
        NL pseudopotentials             0.43 Mb     (    1759,   16)
        Each V/rho on FFT grid          0.71 Mb     (   46656)
        Each G-vector array             0.11 Mb     (   13803)
        G-vector shells                 0.00 Mb     (     188)
     Largest temporary arrays     est. size (Mb)     dimensions
        Auxiliary wavefunctions         0.43 Mb     (    1759,   16)
        Each subspace H/S matrix        0.00 Mb     (      16,   16)
        Each <psi_i|beta_j> matrix      0.00 Mb     (      16,    4)
        Arrays for rho mixing           5.70 Mb     (   46656,    8)

     Initial potential from superposition of free atoms

     starting charge    7.99888, renormalised to    8.00000
     Starting wfc are    8 randomized atomic wfcs
     Checking if some PAW data can be deallocated... 

     total cpu time spent up to now is        0.9 secs

     per-process dynamical memory:    14.9 Mb

     Self-consistent Calculation

     iteration #  1     ecut=    50.00 Ry     beta=0.70
     Davidson diagonalization with overlap
     ethr =  1.00E-02,  avg # of iterations =  2.0

     Threshold (ethr) on eigenvalues was too large:
     Diagonalizing with lowered threshold

     Davidson diagonalization with overlap
     ethr =  6.41E-04,  avg # of iterations =  1.1

     total cpu time spent up to now is        2.2 secs

     total energy              =     -93.45048694 Ry
     Harris-Foulkes estimate   =     -93.46140221 Ry
     estimated scf accuracy    <       0.05072951 Ry

     iteration #  2     ecut=    50.00 Ry     beta=0.70
     Davidson diagonalization with overlap
     ethr =  6.34E-04,  avg # of iterations =  1.0

     total cpu time spent up to now is        2.9 secs

     total energy              =     -93.45203798 Ry
     Harris-Foulkes estimate   =     -93.45218989 Ry
     estimated scf accuracy    <       0.00245916 Ry

     iteration #  3     ecut=    50.00 Ry     beta=0.70
     Davidson diagonalization with overlap
     ethr =  3.07E-05,  avg # of iterations =  1.8

     total cpu time spent up to now is        3.6 secs

     total energy              =     -93.45225943 Ry
     Harris-Foulkes estimate   =     -93.45227287 Ry
     estimated scf accuracy    <       0.00004190 Ry

     iteration #  4     ecut=    50.00 Ry     beta=0.70
     Davidson diagonalization with overlap
     ethr =  5.24E-07,  avg # of iterations =  3.1

     total cpu time spent up to now is        4.6 secs

     End of self-consistent calculation

          k = 0.0000 0.0000 0.0000 (  1759 PWs)   bands (ev):

    -5.9960   5.5108   5.5108   5.5108

          k =-0.1111 0.1111-0.1111 (  1753 PWs)   bands (ev):

    -5.8438   4.1701   5.2895   5.2895

          k =-0.2222 0.2222-0.2222 (  1748 PWs)   bands (ev):

    -5.3973   2.1791   4.8879   4.8879

          k =-0.3333 0.3333-0.3333 (  1730 PWs)   bands (ev):

    -4.7046   0.3683   4.5637   4.5637

          k =-0.4444 0.4444-0.4444 (  1724 PWs)   bands (ev):

    -3.9776  -0.9341   4.3937   4.3937

          k = 0.0000 0.2222 0.0000 (  1744 PWs)   bands (ev):

    -5.7926   4.3275   4.8856   4.8856

          k =-0.1111 0.3333-0.1111 (  1738 PWs)   bands (ev):

    -5.4421   2.7395   4.4394   4.5365

          k =-0.2222 0.4444-0.2222 (  1728 PWs)   bands (ev):

    -4.8222   0.9409   4.0506   4.1467

          k =-0.3333 0.5556-0.3333 (  1731 PWs)   bands (ev):

    -4.0564  -0.5477   3.6378   4.0630

          k = 0.5556-0.3333 0.5556 (  1732 PWs)   bands (ev):

    -3.7138  -1.0733   3.3987   4.1895

          k = 0.4444-0.2222 0.4444 (  1731 PWs)   bands (ev):

    -4.3129  -0.1039   3.3777   4.4975

          k = 0.3333-0.1111 0.3333 (  1729 PWs)   bands (ev):

    -5.0574   1.5194   3.6150   4.9199

          k = 0.2222-0.0000 0.2222 (  1745 PWs)   bands (ev):

    -5.5926   3.1918   4.2479   5.2919

          k = 0.0000 0.4444 0.0000 (  1736 PWs)   bands (ev):

    -5.1881   2.4531   3.9508   3.9508

          k =-0.1111 0.5556-0.1111 (  1728 PWs)   bands (ev):

    -4.6528   1.2007   3.3538   3.6259

          k =-0.2222 0.6667-0.2222 (  1724 PWs)   bands (ev):

    -3.9071  -0.1676   2.6489   3.5297

          k = 0.6667-0.2222 0.6667 (  1733 PWs)   bands (ev):

    -3.3093  -1.0303   2.1597   3.6721

          k = 0.5556-0.1111 0.5556 (  1734 PWs)   bands (ev):

    -3.6863  -0.5009   2.0033   4.0270

          k = 0.4444 0.0000 0.4444 (  1728 PWs)   bands (ev):

    -4.4504   0.6628   2.3839   4.5137

          k = 0.0000 0.6667 0.0000 (  1728 PWs)   bands (ev):

    -4.2020   0.5516   3.2475   3.2475

          k =-0.1111 0.7778-0.1111 (  1720 PWs)   bands (ev):

    -3.5089  -0.4422   2.5816   3.0975

          k = 0.7778-0.1111 0.7778 (  1725 PWs)   bands (ev):

    -2.7757  -1.2808   1.7503   3.1967

          k = 0.6667-0.0000 0.6667 (  1726 PWs)   bands (ev):

    -2.9468  -1.0919   1.4152   3.5291

          k = 0.0000 0.8889 0.0000 (  1724 PWs)   bands (ev):

    -2.8712  -1.2571   2.8818   2.8818

          k = 0.8889 0.0000 0.8889 (  1714 PWs)   bands (ev):

    -2.1529  -1.9827   2.3263   2.9167

          k =-0.2222 0.4444 0.0000 (  1728 PWs)   bands (ev):

    -5.0003   1.7570   3.3069   4.4065

          k =-0.3333 0.5556-0.1111 (  1720 PWs)   bands (ev):

    -4.3121   0.3601   2.7143   4.0051

          k = 0.5556-0.3333 0.7778 (  1731 PWs)   bands (ev):

    -3.5783  -0.8304   2.5122   3.7097

          k =-0.2222 0.6667 0.0000 (  1720 PWs)   bands (ev):

    -4.0409   0.2715   2.6381   3.2822

          k = 0.6667-0.2222 0.8889 (  1724 PWs)   bands (ev):

    -3.2719  -0.7450   2.0160   3.0027

          k = 0.5556-0.1111 0.7778 (  1727 PWs)   bands (ev):

    -2.9411  -1.1323   1.6581   3.1052

          k = 0.4444 0.0000 0.6667 (  1734 PWs)   bands (ev):

    -3.5877  -0.3854   1.8019   3.5085

          k = 0.7778-0.1111 1.0000 (  1725 PWs)   bands (ev):

    -2.7674  -1.2786   2.3711   2.5712

          k = 0.6667-0.0000 0.8889 (  1719 PWs)   bands (ev):

    -2.2925  -1.7076   1.7154   2.6517

          k = 0.5556-0.1111 1.0000 (  1723 PWs)   bands (ev):

    -2.5204  -1.4203   1.7482   2.3483

     highest occupied level (ev):     5.5108

!    total energy              =     -93.45228713 Ry
     Harris-Foulkes estimate   =     -93.45228735 Ry
     estimated scf accuracy    <       0.00000061 Ry

     total all-electron energy =     -1160.144023 Ry

     The total energy is the sum of the following terms:

     one-electron contribution =       5.20355517 Ry
     hartree contribution      =       1.15996718 Ry
     xc contribution           =     -12.17578678 Ry
     ewald contribution        =     -16.41690836 Ry
     one-center paw contrib.   =     -71.22311434 Ry

     convergence has been achieved in   4 iterations

     Forces acting on atoms (Ry/au):

     atom    1 type  1   force =     0.00000000    0.00000000    0.00000000
     atom    2 type  1   force =    -0.00000000   -0.00000000   -0.00000000

     Total force =     0.000000     Total SCF correction =     0.000000


     entering subroutine stress ...

          total   stress  (Ry/bohr**3)                   (kbar)     P=  -38.91
  -0.00026451  -0.00000000  -0.00000000        -38.91     -0.00     -0.00
   0.00000000  -0.00026451  -0.00000000          0.00    -38.91     -0.00
  -0.00000000  -0.00000000  -0.00026451         -0.00     -0.00    -38.91


     Writing output data file pwscf.save
 
     init_run     :      0.73s CPU      0.74s WALL (       1 calls)
     electrons    :      3.67s CPU      3.70s WALL (       1 calls)
     forces       :      0.08s CPU      0.08s WALL (       1 calls)
     stress       :      0.26s CPU      0.26s WALL (       1 calls)

     Called by init_run:
     wfcinit      :      0.39s CPU      0.39s WALL (       1 calls)
     potinit      :      0.12s CPU      0.12s WALL (       1 calls)

     Called by electrons:
     c_bands      :      2.57s CPU      2.60s WALL (       5 calls)
     sum_band     :      0.58s CPU      0.59s WALL (       5 calls)
     v_of_rho     :      0.14s CPU      0.14s WALL (       5 calls)
     newd         :      0.04s CPU      0.05s WALL (       5 calls)
     mix_rho      :      0.00s CPU      0.01s WALL (       5 calls)

     Called by c_bands:
     init_us_2    :      0.12s CPU      0.13s WALL (     455 calls)
     cegterg      :      2.38s CPU      2.39s WALL (     175 calls)

     Called by *egterg:
     h_psi        :      2.56s CPU      2.58s WALL (     522 calls)
     s_psi        :      0.03s CPU      0.03s WALL (     522 calls)
     g_psi        :      0.03s CPU      0.02s WALL (     312 calls)
     cdiaghg      :      0.02s CPU      0.02s WALL (     452 calls)

     Called by h_psi:
     add_vuspsi   :      0.02s CPU      0.03s WALL (     522 calls)

     General routines
     calbec       :      0.07s CPU      0.06s WALL (     767 calls)
     fft          :      0.07s CPU      0.08s WALL (      92 calls)
     fftw         :      2.64s CPU      2.69s WALL (    4792 calls)
     davcio       :      0.00s CPU      0.00s WALL (      35 calls)
 
     Parallel routines
     fft_scatter  :      0.16s CPU      0.17s WALL (    4884 calls)

     PAW routines
     PAW_pot      :      0.44s CPU      0.44s WALL (       5 calls)
     PAW_symme    :      0.00s CPU      0.00s WALL (      10 calls)
 
     PWSCF        :     4.93s CPU         5.04s WALL

 
   This run was terminated on:  10:28:54   1May2015            

=------------------------------------------------------------------------------=
   JOB DONE.
=------------------------------------------------------------------------------=
