
     Program PWSCF v.5.1 starts on  1May2015 at 10:27:52 

     This program is part of the open-source Quantum ESPRESSO suite
     for quantum simulation of materials; please cite
         "P. Giannozzi et al., J. Phys.:Condens. Matter 21 395502 (2009);
          URL http://www.quantum-espresso.org", 
     in publications or presentations arising from this work. More details at
     http://www.quantum-espresso.org/quote

     Parallel version (MPI), running on     1 processors
     Waiting for input...
     Reading input from standard input
Warning: card &IONS ignored
Warning: card / ignored
Warning: card &CELL ignored
Warning: card / ignored

     Current dimensions of program PWSCF are:
     Max number of different atomic species (ntypx) = 10
     Max number of k-points (npk) =  40000
     Max angular momentum in pseudopotentials (lmaxx) =  3
               file Si.pbe-n-kjpaw_psl.0.1.UPF: wavefunction(s)  3S renormalized

     Subspace diagonalization in iterative solution of the eigenvalue problem:
     a serial algorithm will be used

 
     G-vector sticks info
     --------------------
     sticks:   dense  smooth     PW     G-vecs:    dense   smooth      PW
     Sum         745     745    223                13323    13323    2229
 


     bravais-lattice index     =            2
     lattice parameter (alat)  =      10.3500  a.u.
     unit-cell volume          =     277.1795 (a.u.)^3
     number of atoms/cell      =            2
     number of atomic types    =            1
     number of electrons       =         8.00
     number of Kohn-Sham states=            4
     kinetic-energy cutoff     =      50.0000  Ry
     charge density cutoff     =     200.0000  Ry
     convergence threshold     =      1.0E-06
     mixing beta               =       0.7000
     number of iterations used =            8  plain     mixing
     Exchange-correlation      =  SLA  PW   PBX  PBC ( 1  4  3  4 0)

     celldm(1)=  10.350000  celldm(2)=   0.000000  celldm(3)=   0.000000
     celldm(4)=   0.000000  celldm(5)=   0.000000  celldm(6)=   0.000000

     crystal axes: (cart. coord. in units of alat)
               a(1) = (  -0.500000   0.000000   0.500000 )  
               a(2) = (   0.000000   0.500000   0.500000 )  
               a(3) = (  -0.500000   0.500000   0.000000 )  

     reciprocal axes: (cart. coord. in units 2 pi/alat)
               b(1) = ( -1.000000 -1.000000  1.000000 )  
               b(2) = (  1.000000  1.000000  1.000000 )  
               b(3) = ( -1.000000  1.000000 -1.000000 )  


     PseudoPot. # 1 for Si read from file:
     ./Si.pbe-n-kjpaw_psl.0.1.UPF
     MD5 check sum: b9d333a40e496bef61db012f150758bf
     Pseudo is Projector augmented-wave + core cor, Zval =  4.0
     Generated using "atomic" code by A. Dal Corso  v.5.0.2 svn rev. 9415
     Shape of augmentation charge: PSQ
     Using radial grid of 1141 points,  4 beta functions with: 
                l(1) =   0
                l(2) =   0
                l(3) =   1
                l(4) =   1
     Q(r) pseudized with 0 coefficients 


     atomic species   valence    mass     pseudopotential
        Si             4.00    28.05500     Si( 1.00)

     48 Sym. Ops., with inversion, found (24 have fractional translation)



   Cartesian axes

     site n.     atom                  positions (alat units)
         1           Si  tau(   1) = (   0.0000000   0.0000000   0.0000000  )
         2           Si  tau(   2) = (  -0.2500000   0.2500000   0.2500000  )

     number of k points=    35
                       cart. coord. in units 2pi/alat
        k(    1) = (   0.0000000   0.0000000   0.0000000), wk =   0.0027435
        k(    2) = (  -0.1111111   0.1111111  -0.1111111), wk =   0.0219479
        k(    3) = (  -0.2222222   0.2222222  -0.2222222), wk =   0.0219479
        k(    4) = (  -0.3333333   0.3333333  -0.3333333), wk =   0.0219479
        k(    5) = (  -0.4444444   0.4444444  -0.4444444), wk =   0.0219479
        k(    6) = (   0.0000000   0.2222222   0.0000000), wk =   0.0164609
        k(    7) = (  -0.1111111   0.3333333  -0.1111111), wk =   0.0658436
        k(    8) = (  -0.2222222   0.4444444  -0.2222222), wk =   0.0658436
        k(    9) = (  -0.3333333   0.5555556  -0.3333333), wk =   0.0658436
        k(   10) = (   0.5555556  -0.3333333   0.5555556), wk =   0.0658436
        k(   11) = (   0.4444444  -0.2222222   0.4444444), wk =   0.0658436
        k(   12) = (   0.3333333  -0.1111111   0.3333333), wk =   0.0658436
        k(   13) = (   0.2222222  -0.0000000   0.2222222), wk =   0.0329218
        k(   14) = (   0.0000000   0.4444444   0.0000000), wk =   0.0164609
        k(   15) = (  -0.1111111   0.5555556  -0.1111111), wk =   0.0658436
        k(   16) = (  -0.2222222   0.6666667  -0.2222222), wk =   0.0658436
        k(   17) = (   0.6666667  -0.2222222   0.6666667), wk =   0.0658436
        k(   18) = (   0.5555556  -0.1111111   0.5555556), wk =   0.0658436
        k(   19) = (   0.4444444   0.0000000   0.4444444), wk =   0.0329218
        k(   20) = (   0.0000000   0.6666667   0.0000000), wk =   0.0164609
        k(   21) = (  -0.1111111   0.7777778  -0.1111111), wk =   0.0658436
        k(   22) = (   0.7777778  -0.1111111   0.7777778), wk =   0.0658436
        k(   23) = (   0.6666667  -0.0000000   0.6666667), wk =   0.0329218
        k(   24) = (   0.0000000   0.8888889   0.0000000), wk =   0.0164609
        k(   25) = (   0.8888889   0.0000000   0.8888889), wk =   0.0329218
        k(   26) = (  -0.2222222   0.4444444   0.0000000), wk =   0.0658436
        k(   27) = (  -0.3333333   0.5555556  -0.1111111), wk =   0.1316872
        k(   28) = (   0.5555556  -0.3333333   0.7777778), wk =   0.1316872
        k(   29) = (  -0.2222222   0.6666667   0.0000000), wk =   0.0658436
        k(   30) = (   0.6666667  -0.2222222   0.8888889), wk =   0.1316872
        k(   31) = (   0.5555556  -0.1111111   0.7777778), wk =   0.1316872
        k(   32) = (   0.4444444   0.0000000   0.6666667), wk =   0.0658436
        k(   33) = (   0.7777778  -0.1111111   1.0000000), wk =   0.0658436
        k(   34) = (   0.6666667  -0.0000000   0.8888889), wk =   0.0658436
        k(   35) = (   0.5555556  -0.1111111   1.0000000), wk =   0.0658436

     Dense  grid:    13323 G-vectors     FFT dimensions: (  36,  36,  36)

     Largest allocated arrays     est. size (Mb)     dimensions
        Kohn-Sham Wavefunctions         0.10 Mb     (    1673,    4)
        NL pseudopotentials             0.41 Mb     (    1673,   16)
        Each V/rho on FFT grid          0.71 Mb     (   46656)
        Each G-vector array             0.10 Mb     (   13323)
        G-vector shells                 0.00 Mb     (     182)
     Largest temporary arrays     est. size (Mb)     dimensions
        Auxiliary wavefunctions         0.41 Mb     (    1673,   16)
        Each subspace H/S matrix        0.00 Mb     (      16,   16)
        Each <psi_i|beta_j> matrix      0.00 Mb     (      16,    4)
        Arrays for rho mixing           5.70 Mb     (   46656,    8)

     Check: negative/imaginary core charge=   -0.000001    0.000000

     Initial potential from superposition of free atoms

     starting charge    7.99888, renormalised to    8.00000
     Starting wfc are    8 randomized atomic wfcs
     Checking if some PAW data can be deallocated... 

     total cpu time spent up to now is        0.9 secs

     per-process dynamical memory:    14.5 Mb

     Self-consistent Calculation

     iteration #  1     ecut=    50.00 Ry     beta=0.70
     Davidson diagonalization with overlap
     ethr =  1.00E-02,  avg # of iterations =  2.0

     Threshold (ethr) on eigenvalues was too large:
     Diagonalizing with lowered threshold

     Davidson diagonalization with overlap
     ethr =  6.88E-04,  avg # of iterations =  1.1

     total cpu time spent up to now is        2.2 secs

     total energy              =     -93.45198184 Ry
     Harris-Foulkes estimate   =     -93.46466578 Ry
     estimated scf accuracy    <       0.05464732 Ry

     iteration #  2     ecut=    50.00 Ry     beta=0.70
     Davidson diagonalization with overlap
     ethr =  6.83E-04,  avg # of iterations =  1.0

     total cpu time spent up to now is        2.9 secs

     total energy              =     -93.45388775 Ry
     Harris-Foulkes estimate   =     -93.45402744 Ry
     estimated scf accuracy    <       0.00243783 Ry

     iteration #  3     ecut=    50.00 Ry     beta=0.70
     Davidson diagonalization with overlap
     ethr =  3.05E-05,  avg # of iterations =  1.9

     total cpu time spent up to now is        3.6 secs

     total energy              =     -93.45415460 Ry
     Harris-Foulkes estimate   =     -93.45417162 Ry
     estimated scf accuracy    <       0.00004986 Ry

     iteration #  4     ecut=    50.00 Ry     beta=0.70
     Davidson diagonalization with overlap
     ethr =  6.23E-07,  avg # of iterations =  2.9

     total cpu time spent up to now is        4.5 secs

     total energy              =     -93.45418079 Ry
     Harris-Foulkes estimate   =     -93.45418160 Ry
     estimated scf accuracy    <       0.00000217 Ry

     iteration #  5     ecut=    50.00 Ry     beta=0.70
     Davidson diagonalization with overlap
     ethr =  2.71E-08,  avg # of iterations =  2.8

     total cpu time spent up to now is        5.4 secs

     End of self-consistent calculation

          k = 0.0000 0.0000 0.0000 (  1639 PWs)   bands (ev):

    -5.8461   5.9468   5.9468   5.9468

          k =-0.1111 0.1111-0.1111 (  1666 PWs)   bands (ev):

    -5.6880   4.6055   5.7152   5.7152

          k =-0.2222 0.2222-0.2222 (  1657 PWs)   bands (ev):

    -5.2238   2.5602   5.2992   5.2992

          k =-0.3333 0.3333-0.3333 (  1634 PWs)   bands (ev):

    -4.5007   0.6852   4.9659   4.9659

          k =-0.4444 0.4444-0.4444 (  1673 PWs)   bands (ev):

    -3.7332  -0.6760   4.7919   4.7919

          k = 0.0000 0.2222 0.0000 (  1667 PWs)   bands (ev):

    -5.6348   4.8103   5.2887   5.2887

          k =-0.1111 0.3333-0.1111 (  1659 PWs)   bands (ev):

    -5.2706   3.1606   4.8251   4.9474

          k =-0.2222 0.4444-0.2222 (  1651 PWs)   bands (ev):

    -4.6248   1.2926   4.4490   4.5243

          k =-0.3333 0.5556-0.3333 (  1652 PWs)   bands (ev):

    -3.8207  -0.2604   4.0216   4.4414

          k = 0.5556-0.3333 0.5556 (  1657 PWs)   bands (ev):

    -3.4554  -0.8154   3.7699   4.5764

          k = 0.4444-0.2222 0.4444 (  1650 PWs)   bands (ev):

    -4.0910   0.2040   3.7406   4.8986

          k = 0.3333-0.1111 0.3333 (  1650 PWs)   bands (ev):

    -4.8700   1.8948   3.9748   5.3385

          k = 0.2222-0.0000 0.2222 (  1663 PWs)   bands (ev):

    -5.4270   3.6266   4.6193   5.7245

          k = 0.0000 0.4444 0.0000 (  1648 PWs)   bands (ev):

    -5.0070   2.9136   4.3157   4.3157

          k =-0.1111 0.5556-0.1111 (  1660 PWs)   bands (ev):

    -4.4501   1.6100   3.7003   3.9796

          k =-0.2222 0.6667-0.2222 (  1654 PWs)   bands (ev):

    -3.6705   0.1760   2.9725   3.8822

          k = 0.6667-0.2222 0.6667 (  1659 PWs)   bands (ev):

    -3.0366  -0.7369   2.4637   4.0327

          k = 0.5556-0.1111 0.5556 (  1648 PWs)   bands (ev):

    -3.4359  -0.1767   2.2915   4.4042

          k = 0.4444 0.0000 0.4444 (  1652 PWs)   bands (ev):

    -4.2371   1.0402   2.6752   4.9136

          k = 0.0000 0.6667 0.0000 (  1668 PWs)   bands (ev):

    -3.9823   0.9552   3.5867   3.5867

          k =-0.1111 0.7778-0.1111 (  1655 PWs)   bands (ev):

    -3.2602  -0.0747   2.8833   3.4321

          k = 0.7778-0.1111 0.7778 (  1660 PWs)   bands (ev):

    -2.4883  -0.9507   2.0058   3.5364

          k = 0.6667-0.0000 0.6667 (  1668 PWs)   bands (ev):

    -2.6615  -0.7609   1.6531   3.8834

          k = 0.0000 0.8889 0.0000 (  1656 PWs)   bands (ev):

    -2.5987  -0.9208   3.2082   3.2082

          k = 0.8889 0.0000 0.8889 (  1656 PWs)   bands (ev):

    -1.8461  -1.6762   2.6151   3.2448

          k =-0.2222 0.4444 0.0000 (  1655 PWs)   bands (ev):

    -4.8111   2.1715   3.6393   4.8035

          k =-0.3333 0.5556-0.1111 (  1654 PWs)   bands (ev):

    -4.0930   0.7158   3.0371   4.3793

          k = 0.5556-0.3333 0.7778 (  1653 PWs)   bands (ev):

    -3.3195  -0.5369   2.8408   4.0663

          k =-0.2222 0.6667 0.0000 (  1661 PWs)   bands (ev):

    -3.8129   0.6603   2.9433   3.6170

          k = 0.6667-0.2222 0.8889 (  1654 PWs)   bands (ev):

    -3.0072  -0.3988   2.2944   3.3207

          k = 0.5556-0.1111 0.7778 (  1653 PWs)   bands (ev):

    -2.6547  -0.8102   1.9183   3.4295

          k = 0.4444 0.0000 0.6667 (  1648 PWs)   bands (ev):

    -3.3357  -0.0289   2.0645   3.8541

          k = 0.7778-0.1111 1.0000 (  1659 PWs)   bands (ev):

    -2.4870  -0.9389   2.6635   2.8697

          k = 0.6667-0.0000 0.8889 (  1654 PWs)   bands (ev):

    -1.9821  -1.3882   1.9650   2.9551

          k = 0.5556-0.1111 1.0000 (  1653 PWs)   bands (ev):

    -2.2215  -1.0836   2.0015   2.6284

     highest occupied level (ev):     5.9468

!    total energy              =     -93.45418158 Ry
     Harris-Foulkes estimate   =     -93.45418165 Ry
     estimated scf accuracy    <       0.00000007 Ry

     total all-electron energy =     -1160.145918 Ry

     The total energy is the sum of the following terms:

     one-electron contribution =       5.53542062 Ry
     hartree contribution      =       1.12053548 Ry
     xc contribution           =     -12.22538194 Ry
     ewald contribution        =     -16.65483456 Ry
     one-center paw contrib.   =     -71.22992119 Ry

     convergence has been achieved in   5 iterations

     Forces acting on atoms (Ry/au):

     atom    1 type  1   force =     0.00000000    0.00000000    0.00000000
     atom    2 type  1   force =     0.00000000   -0.00000000    0.00000000

     Total force =     0.000000     Total SCF correction =     0.000000


     entering subroutine stress ...

          total   stress  (Ry/bohr**3)                   (kbar)     P=   -5.21
  -0.00003545  -0.00000000  -0.00000000         -5.21     -0.00     -0.00
  -0.00000000  -0.00003545   0.00000000         -0.00     -5.21      0.00
  -0.00000000   0.00000000  -0.00003545         -0.00      0.00     -5.21


     Writing output data file pwscf.save
 
     init_run     :      0.73s CPU      0.74s WALL (       1 calls)
     electrons    :      4.52s CPU      4.56s WALL (       1 calls)
     forces       :      0.08s CPU      0.08s WALL (       1 calls)
     stress       :      0.25s CPU      0.25s WALL (       1 calls)

     Called by init_run:
     wfcinit      :      0.39s CPU      0.39s WALL (       1 calls)
     potinit      :      0.12s CPU      0.12s WALL (       1 calls)

     Called by electrons:
     c_bands      :      3.19s CPU      3.21s WALL (       6 calls)
     sum_band     :      0.70s CPU      0.71s WALL (       6 calls)
     v_of_rho     :      0.16s CPU      0.17s WALL (       6 calls)
     newd         :      0.05s CPU      0.05s WALL (       6 calls)
     mix_rho      :      0.01s CPU      0.01s WALL (       6 calls)

     Called by c_bands:
     init_us_2    :      0.15s CPU      0.15s WALL (     525 calls)
     cegterg      :      2.95s CPU      2.97s WALL (     210 calls)

     Called by *egterg:
     h_psi        :      3.11s CPU      3.13s WALL (     654 calls)
     s_psi        :      0.03s CPU      0.03s WALL (     654 calls)
     g_psi        :      0.03s CPU      0.03s WALL (     409 calls)
     cdiaghg      :      0.02s CPU      0.02s WALL (     584 calls)

     Called by h_psi:
     add_vuspsi   :      0.04s CPU      0.03s WALL (     654 calls)

     General routines
     calbec       :      0.08s CPU      0.07s WALL (     934 calls)
     fft          :      0.09s CPU      0.09s WALL (     105 calls)
     fftw         :      3.22s CPU      3.26s WALL (    5856 calls)
     davcio       :      0.00s CPU      0.00s WALL (      35 calls)
 
     Parallel routines
     fft_scatter  :      0.22s CPU      0.20s WALL (    5961 calls)

     PAW routines
     PAW_pot      :      0.53s CPU      0.53s WALL (       6 calls)
     PAW_symme    :      0.00s CPU      0.00s WALL (      12 calls)
 
     PWSCF        :     5.77s CPU         5.88s WALL

 
   This run was terminated on:  10:27:58   1May2015            

=------------------------------------------------------------------------------=
   JOB DONE.
=------------------------------------------------------------------------------=
