
     Program PWSCF v.5.1 starts on  1May2015 at 10:28:10 

     This program is part of the open-source Quantum ESPRESSO suite
     for quantum simulation of materials; please cite
         "P. Giannozzi et al., J. Phys.:Condens. Matter 21 395502 (2009);
          URL http://www.quantum-espresso.org", 
     in publications or presentations arising from this work. More details at
     http://www.quantum-espresso.org/quote

     Parallel version (MPI), running on     1 processors
     Waiting for input...
     Reading input from standard input
Warning: card &IONS ignored
Warning: card / ignored
Warning: card &CELL ignored
Warning: card / ignored

     Current dimensions of program PWSCF are:
     Max number of different atomic species (ntypx) = 10
     Max number of k-points (npk) =  40000
     Max angular momentum in pseudopotentials (lmaxx) =  3
               file Si.pbe-n-kjpaw_psl.0.1.UPF: wavefunction(s)  3S renormalized

     Subspace diagonalization in iterative solution of the eigenvalue problem:
     a serial algorithm will be used

 
     G-vector sticks info
     --------------------
     sticks:   dense  smooth     PW     G-vecs:    dense   smooth      PW
     Sum         745     745    223                13371    13371    2229
 


     bravais-lattice index     =            2
     lattice parameter (alat)  =      10.3800  a.u.
     unit-cell volume          =     279.5967 (a.u.)^3
     number of atoms/cell      =            2
     number of atomic types    =            1
     number of electrons       =         8.00
     number of Kohn-Sham states=            4
     kinetic-energy cutoff     =      50.0000  Ry
     charge density cutoff     =     200.0000  Ry
     convergence threshold     =      1.0E-06
     mixing beta               =       0.7000
     number of iterations used =            8  plain     mixing
     Exchange-correlation      =  SLA  PW   PBX  PBC ( 1  4  3  4 0)

     celldm(1)=  10.380000  celldm(2)=   0.000000  celldm(3)=   0.000000
     celldm(4)=   0.000000  celldm(5)=   0.000000  celldm(6)=   0.000000

     crystal axes: (cart. coord. in units of alat)
               a(1) = (  -0.500000   0.000000   0.500000 )  
               a(2) = (   0.000000   0.500000   0.500000 )  
               a(3) = (  -0.500000   0.500000   0.000000 )  

     reciprocal axes: (cart. coord. in units 2 pi/alat)
               b(1) = ( -1.000000 -1.000000  1.000000 )  
               b(2) = (  1.000000  1.000000  1.000000 )  
               b(3) = ( -1.000000  1.000000 -1.000000 )  


     PseudoPot. # 1 for Si read from file:
     ./Si.pbe-n-kjpaw_psl.0.1.UPF
     MD5 check sum: b9d333a40e496bef61db012f150758bf
     Pseudo is Projector augmented-wave + core cor, Zval =  4.0
     Generated using "atomic" code by A. Dal Corso  v.5.0.2 svn rev. 9415
     Shape of augmentation charge: PSQ
     Using radial grid of 1141 points,  4 beta functions with: 
                l(1) =   0
                l(2) =   0
                l(3) =   1
                l(4) =   1
     Q(r) pseudized with 0 coefficients 


     atomic species   valence    mass     pseudopotential
        Si             4.00    28.05500     Si( 1.00)

     48 Sym. Ops., with inversion, found (24 have fractional translation)



   Cartesian axes

     site n.     atom                  positions (alat units)
         1           Si  tau(   1) = (   0.0000000   0.0000000   0.0000000  )
         2           Si  tau(   2) = (  -0.2500000   0.2500000   0.2500000  )

     number of k points=    35
                       cart. coord. in units 2pi/alat
        k(    1) = (   0.0000000   0.0000000   0.0000000), wk =   0.0027435
        k(    2) = (  -0.1111111   0.1111111  -0.1111111), wk =   0.0219479
        k(    3) = (  -0.2222222   0.2222222  -0.2222222), wk =   0.0219479
        k(    4) = (  -0.3333333   0.3333333  -0.3333333), wk =   0.0219479
        k(    5) = (  -0.4444444   0.4444444  -0.4444444), wk =   0.0219479
        k(    6) = (   0.0000000   0.2222222   0.0000000), wk =   0.0164609
        k(    7) = (  -0.1111111   0.3333333  -0.1111111), wk =   0.0658436
        k(    8) = (  -0.2222222   0.4444444  -0.2222222), wk =   0.0658436
        k(    9) = (  -0.3333333   0.5555556  -0.3333333), wk =   0.0658436
        k(   10) = (   0.5555556  -0.3333333   0.5555556), wk =   0.0658436
        k(   11) = (   0.4444444  -0.2222222   0.4444444), wk =   0.0658436
        k(   12) = (   0.3333333  -0.1111111   0.3333333), wk =   0.0658436
        k(   13) = (   0.2222222  -0.0000000   0.2222222), wk =   0.0329218
        k(   14) = (   0.0000000   0.4444444   0.0000000), wk =   0.0164609
        k(   15) = (  -0.1111111   0.5555556  -0.1111111), wk =   0.0658436
        k(   16) = (  -0.2222222   0.6666667  -0.2222222), wk =   0.0658436
        k(   17) = (   0.6666667  -0.2222222   0.6666667), wk =   0.0658436
        k(   18) = (   0.5555556  -0.1111111   0.5555556), wk =   0.0658436
        k(   19) = (   0.4444444   0.0000000   0.4444444), wk =   0.0329218
        k(   20) = (   0.0000000   0.6666667   0.0000000), wk =   0.0164609
        k(   21) = (  -0.1111111   0.7777778  -0.1111111), wk =   0.0658436
        k(   22) = (   0.7777778  -0.1111111   0.7777778), wk =   0.0658436
        k(   23) = (   0.6666667  -0.0000000   0.6666667), wk =   0.0329218
        k(   24) = (   0.0000000   0.8888889   0.0000000), wk =   0.0164609
        k(   25) = (   0.8888889   0.0000000   0.8888889), wk =   0.0329218
        k(   26) = (  -0.2222222   0.4444444   0.0000000), wk =   0.0658436
        k(   27) = (  -0.3333333   0.5555556  -0.1111111), wk =   0.1316872
        k(   28) = (   0.5555556  -0.3333333   0.7777778), wk =   0.1316872
        k(   29) = (  -0.2222222   0.6666667   0.0000000), wk =   0.0658436
        k(   30) = (   0.6666667  -0.2222222   0.8888889), wk =   0.1316872
        k(   31) = (   0.5555556  -0.1111111   0.7777778), wk =   0.1316872
        k(   32) = (   0.4444444   0.0000000   0.6666667), wk =   0.0658436
        k(   33) = (   0.7777778  -0.1111111   1.0000000), wk =   0.0658436
        k(   34) = (   0.6666667  -0.0000000   0.8888889), wk =   0.0658436
        k(   35) = (   0.5555556  -0.1111111   1.0000000), wk =   0.0658436

     Dense  grid:    13371 G-vectors     FFT dimensions: (  36,  36,  36)

     Largest allocated arrays     est. size (Mb)     dimensions
        Kohn-Sham Wavefunctions         0.10 Mb     (    1691,    4)
        NL pseudopotentials             0.41 Mb     (    1691,   16)
        Each V/rho on FFT grid          0.71 Mb     (   46656)
        Each G-vector array             0.10 Mb     (   13371)
        G-vector shells                 0.00 Mb     (     183)
     Largest temporary arrays     est. size (Mb)     dimensions
        Auxiliary wavefunctions         0.41 Mb     (    1691,   16)
        Each subspace H/S matrix        0.00 Mb     (      16,   16)
        Each <psi_i|beta_j> matrix      0.00 Mb     (      16,    4)
        Arrays for rho mixing           5.70 Mb     (   46656,    8)

     Check: negative/imaginary core charge=   -0.000001    0.000000

     Initial potential from superposition of free atoms

     starting charge    7.99888, renormalised to    8.00000
     Starting wfc are    8 randomized atomic wfcs
     Checking if some PAW data can be deallocated... 

     total cpu time spent up to now is        0.9 secs

     per-process dynamical memory:    14.5 Mb

     Self-consistent Calculation

     iteration #  1     ecut=    50.00 Ry     beta=0.70
     Davidson diagonalization with overlap
     ethr =  1.00E-02,  avg # of iterations =  2.0

     Threshold (ethr) on eigenvalues was too large:
     Diagonalizing with lowered threshold

     Davidson diagonalization with overlap
     ethr =  6.79E-04,  avg # of iterations =  1.0

     total cpu time spent up to now is        2.2 secs

     total energy              =     -93.45192815 Ry
     Harris-Foulkes estimate   =     -93.46423552 Ry
     estimated scf accuracy    <       0.05382198 Ry

     iteration #  2     ecut=    50.00 Ry     beta=0.70
     Davidson diagonalization with overlap
     ethr =  6.73E-04,  avg # of iterations =  1.0

     total cpu time spent up to now is        2.9 secs

     total energy              =     -93.45375510 Ry
     Harris-Foulkes estimate   =     -93.45389820 Ry
     estimated scf accuracy    <       0.00244420 Ry

     iteration #  3     ecut=    50.00 Ry     beta=0.70
     Davidson diagonalization with overlap
     ethr =  3.06E-05,  avg # of iterations =  1.9

     total cpu time spent up to now is        3.6 secs

     total energy              =     -93.45400903 Ry
     Harris-Foulkes estimate   =     -93.45402395 Ry
     estimated scf accuracy    <       0.00004715 Ry

     iteration #  4     ecut=    50.00 Ry     beta=0.70
     Davidson diagonalization with overlap
     ethr =  5.89E-07,  avg # of iterations =  3.0

     total cpu time spent up to now is        4.5 secs

     total energy              =     -93.45403674 Ry
     Harris-Foulkes estimate   =     -93.45403714 Ry
     estimated scf accuracy    <       0.00000109 Ry

     iteration #  5     ecut=    50.00 Ry     beta=0.70
     Davidson diagonalization with overlap
     ethr =  1.36E-08,  avg # of iterations =  3.4

     total cpu time spent up to now is        5.5 secs

     End of self-consistent calculation

          k = 0.0000 0.0000 0.0000 (  1687 PWs)   bands (ev):

    -5.8764   5.8581   5.8581   5.8581

          k =-0.1111 0.1111-0.1111 (  1684 PWs)   bands (ev):

    -5.7195   4.5176   5.6286   5.6286

          k =-0.2222 0.2222-0.2222 (  1657 PWs)   bands (ev):

    -5.2589   2.4833   5.2155   5.2155

          k =-0.3333 0.3333-0.3333 (  1670 PWs)   bands (ev):

    -4.5420   0.6212   4.8840   4.8840

          k =-0.4444 0.4444-0.4444 (  1679 PWs)   bands (ev):

    -3.7828  -0.7280   4.7108   4.7108

          k = 0.0000 0.2222 0.0000 (  1691 PWs)   bands (ev):

    -5.6667   4.7128   5.2067   5.2067

          k =-0.1111 0.3333-0.1111 (  1672 PWs)   bands (ev):

    -5.3053   3.0757   4.7466   4.8637

          k =-0.2222 0.4444-0.2222 (  1665 PWs)   bands (ev):

    -4.6647   1.2216   4.3679   4.4475

          k =-0.3333 0.5556-0.3333 (  1666 PWs)   bands (ev):

    -3.8684  -0.3184   3.9434   4.3644

          k = 0.5556-0.3333 0.5556 (  1672 PWs)   bands (ev):

    -3.5078  -0.8674   3.6943   4.4976

          k = 0.4444-0.2222 0.4444 (  1665 PWs)   bands (ev):

    -4.1360   0.1419   3.6667   4.8169

          k = 0.3333-0.1111 0.3333 (  1668 PWs)   bands (ev):

    -4.9079   1.8190   3.9015   5.2533

          k = 0.2222-0.0000 0.2222 (  1677 PWs)   bands (ev):

    -5.4605   3.5388   4.5438   5.6364

          k = 0.0000 0.4444 0.0000 (  1664 PWs)   bands (ev):

    -5.0437   2.8203   4.2414   4.2414

          k =-0.1111 0.5556-0.1111 (  1677 PWs)   bands (ev):

    -4.4911   1.5272   3.6297   3.9076

          k =-0.2222 0.6667-0.2222 (  1675 PWs)   bands (ev):

    -3.7184   0.1066   2.9065   3.8105

          k = 0.6667-0.2222 0.6667 (  1675 PWs)   bands (ev):

    -3.0919  -0.7960   2.4017   3.9593

          k = 0.5556-0.1111 0.5556 (  1666 PWs)   bands (ev):

    -3.4867  -0.2421   2.2327   4.3275

          k = 0.4444 0.0000 0.4444 (  1664 PWs)   bands (ev):

    -4.2803   0.9639   2.6159   4.8322

          k = 0.0000 0.6667 0.0000 (  1680 PWs)   bands (ev):

    -4.0268   0.8734   3.5176   3.5176

          k =-0.1111 0.7778-0.1111 (  1667 PWs)   bands (ev):

    -3.3105  -0.1492   2.8219   3.3639

          k = 0.7778-0.1111 0.7778 (  1676 PWs)   bands (ev):

    -2.5466  -1.0176   1.9538   3.4672

          k = 0.6667-0.0000 0.6667 (  1668 PWs)   bands (ev):

    -2.7194  -0.8280   1.6047   3.8112

          k = 0.0000 0.8889 0.0000 (  1676 PWs)   bands (ev):

    -2.6539  -0.9890   3.1418   3.1418

          k = 0.8889 0.0000 0.8889 (  1676 PWs)   bands (ev):

    -1.9083  -1.7383   2.5564   3.1780

          k =-0.2222 0.4444 0.0000 (  1665 PWs)   bands (ev):

    -4.8494   2.0876   3.5717   4.7227

          k =-0.3333 0.5556-0.1111 (  1671 PWs)   bands (ev):

    -4.1373   0.6439   2.9713   4.3031

          k = 0.5556-0.3333 0.7778 (  1668 PWs)   bands (ev):

    -3.3720  -0.5961   2.7738   3.9937

          k =-0.2222 0.6667 0.0000 (  1673 PWs)   bands (ev):

    -3.8591   0.5815   2.8812   3.5489

          k = 0.6667-0.2222 0.8889 (  1668 PWs)   bands (ev):

    -3.0609  -0.4689   2.2377   3.2560

          k = 0.5556-0.1111 0.7778 (  1672 PWs)   bands (ev):

    -2.7129  -0.8754   1.8653   3.3636

          k = 0.4444 0.0000 0.6667 (  1663 PWs)   bands (ev):

    -3.3867  -0.1011   2.0111   3.7838

          k = 0.7778-0.1111 1.0000 (  1664 PWs)   bands (ev):

    -2.5439  -1.0078   2.6040   2.8090

          k = 0.6667-0.0000 0.8889 (  1668 PWs)   bands (ev):

    -2.0451  -1.4529   1.9143   2.8934

          k = 0.5556-0.1111 1.0000 (  1673 PWs)   bands (ev):

    -2.2821  -1.1519   1.9500   2.5715

     highest occupied level (ev):     5.8581

!    total energy              =     -93.45403731 Ry
     Harris-Foulkes estimate   =     -93.45403737 Ry
     estimated scf accuracy    <       0.00000005 Ry

     total all-electron energy =     -1160.145773 Ry

     The total energy is the sum of the following terms:

     one-electron contribution =       5.46800061 Ry
     hartree contribution      =       1.12832156 Ry
     xc contribution           =     -12.21522608 Ry
     ewald contribution        =     -16.60669920 Ry
     one-center paw contrib.   =     -71.22843420 Ry

     convergence has been achieved in   5 iterations

     Forces acting on atoms (Ry/au):

     atom    1 type  1   force =     0.00000000   -0.00000000    0.00000000
     atom    2 type  1   force =     0.00000000   -0.00000000    0.00000000

     Total force =     0.000000     Total SCF correction =     0.000000


     entering subroutine stress ...

          total   stress  (Ry/bohr**3)                   (kbar)     P=  -12.60
  -0.00008566  -0.00000000  -0.00000000        -12.60     -0.00     -0.00
  -0.00000000  -0.00008566   0.00000000         -0.00    -12.60      0.00
  -0.00000000   0.00000000  -0.00008566         -0.00      0.00    -12.60


     Writing output data file pwscf.save
 
     init_run     :      0.73s CPU      0.74s WALL (       1 calls)
     electrons    :      4.60s CPU      4.83s WALL (       1 calls)
     forces       :      0.08s CPU      0.07s WALL (       1 calls)
     stress       :      0.25s CPU      0.26s WALL (       1 calls)

     Called by init_run:
     wfcinit      :      0.39s CPU      0.39s WALL (       1 calls)
     potinit      :      0.12s CPU      0.12s WALL (       1 calls)

     Called by electrons:
     c_bands      :      3.26s CPU      3.29s WALL (       6 calls)
     sum_band     :      0.70s CPU      0.70s WALL (       6 calls)
     v_of_rho     :      0.17s CPU      0.17s WALL (       6 calls)
     newd         :      0.05s CPU      0.05s WALL (       6 calls)
     mix_rho      :      0.01s CPU      0.01s WALL (       6 calls)

     Called by c_bands:
     init_us_2    :      0.09s CPU      0.15s WALL (     525 calls)
     cegterg      :      3.01s CPU      3.05s WALL (     210 calls)

     Called by *egterg:
     h_psi        :      3.15s CPU      3.19s WALL (     675 calls)
     s_psi        :      0.03s CPU      0.04s WALL (     675 calls)
     g_psi        :      0.03s CPU      0.03s WALL (     430 calls)
     cdiaghg      :      0.02s CPU      0.03s WALL (     605 calls)

     Called by h_psi:
     add_vuspsi   :      0.03s CPU      0.04s WALL (     675 calls)

     General routines
     calbec       :      0.06s CPU      0.07s WALL (     955 calls)
     fft          :      0.09s CPU      0.09s WALL (     105 calls)
     fftw         :      3.35s CPU      3.31s WALL (    5938 calls)
     davcio       :      0.00s CPU      0.00s WALL (      35 calls)
 
     Parallel routines
     fft_scatter  :      0.21s CPU      0.21s WALL (    6043 calls)

     PAW routines
     PAW_pot      :      0.54s CPU      0.54s WALL (       6 calls)
     PAW_symme    :      0.00s CPU      0.00s WALL (      12 calls)
 
     PWSCF        :     5.85s CPU         6.18s WALL

 
   This run was terminated on:  10:28:17   1May2015            

=------------------------------------------------------------------------------=
   JOB DONE.
=------------------------------------------------------------------------------=
