
     Program PWSCF v.5.1 starts on  1May2015 at 10:28:54 

     This program is part of the open-source Quantum ESPRESSO suite
     for quantum simulation of materials; please cite
         "P. Giannozzi et al., J. Phys.:Condens. Matter 21 395502 (2009);
          URL http://www.quantum-espresso.org", 
     in publications or presentations arising from this work. More details at
     http://www.quantum-espresso.org/quote

     Parallel version (MPI), running on     1 processors
     Waiting for input...
     Reading input from standard input
Warning: card &IONS ignored
Warning: card / ignored
Warning: card &CELL ignored
Warning: card / ignored

     Current dimensions of program PWSCF are:
     Max number of different atomic species (ntypx) = 10
     Max number of k-points (npk) =  40000
     Max angular momentum in pseudopotentials (lmaxx) =  3
               file Si.pbe-n-kjpaw_psl.0.1.UPF: wavefunction(s)  3S renormalized

     Subspace diagonalization in iterative solution of the eigenvalue problem:
     a serial algorithm will be used

 
     G-vector sticks info
     --------------------
     sticks:   dense  smooth     PW     G-vecs:    dense   smooth      PW
     Sum         685     685    211                11935    11935    2085
 


     bravais-lattice index     =            2
     lattice parameter (alat)  =      10.0000  a.u.
     unit-cell volume          =     250.0000 (a.u.)^3
     number of atoms/cell      =            2
     number of atomic types    =            1
     number of electrons       =         8.00
     number of Kohn-Sham states=            4
     kinetic-energy cutoff     =      50.0000  Ry
     charge density cutoff     =     200.0000  Ry
     convergence threshold     =      1.0E-06
     mixing beta               =       0.7000
     number of iterations used =            8  plain     mixing
     Exchange-correlation      =  SLA  PW   PBX  PBC ( 1  4  3  4 0)

     celldm(1)=  10.000000  celldm(2)=   0.000000  celldm(3)=   0.000000
     celldm(4)=   0.000000  celldm(5)=   0.000000  celldm(6)=   0.000000

     crystal axes: (cart. coord. in units of alat)
               a(1) = (  -0.500000   0.000000   0.500000 )  
               a(2) = (   0.000000   0.500000   0.500000 )  
               a(3) = (  -0.500000   0.500000   0.000000 )  

     reciprocal axes: (cart. coord. in units 2 pi/alat)
               b(1) = ( -1.000000 -1.000000  1.000000 )  
               b(2) = (  1.000000  1.000000  1.000000 )  
               b(3) = ( -1.000000  1.000000 -1.000000 )  


     PseudoPot. # 1 for Si read from file:
     ./Si.pbe-n-kjpaw_psl.0.1.UPF
     MD5 check sum: b9d333a40e496bef61db012f150758bf
     Pseudo is Projector augmented-wave + core cor, Zval =  4.0
     Generated using "atomic" code by A. Dal Corso  v.5.0.2 svn rev. 9415
     Shape of augmentation charge: PSQ
     Using radial grid of 1141 points,  4 beta functions with: 
                l(1) =   0
                l(2) =   0
                l(3) =   1
                l(4) =   1
     Q(r) pseudized with 0 coefficients 


     atomic species   valence    mass     pseudopotential
        Si             4.00    28.05500     Si( 1.00)

     48 Sym. Ops., with inversion, found (24 have fractional translation)



   Cartesian axes

     site n.     atom                  positions (alat units)
         1           Si  tau(   1) = (   0.0000000   0.0000000   0.0000000  )
         2           Si  tau(   2) = (  -0.2500000   0.2500000   0.2500000  )

     number of k points=    35
                       cart. coord. in units 2pi/alat
        k(    1) = (   0.0000000   0.0000000   0.0000000), wk =   0.0027435
        k(    2) = (  -0.1111111   0.1111111  -0.1111111), wk =   0.0219479
        k(    3) = (  -0.2222222   0.2222222  -0.2222222), wk =   0.0219479
        k(    4) = (  -0.3333333   0.3333333  -0.3333333), wk =   0.0219479
        k(    5) = (  -0.4444444   0.4444444  -0.4444444), wk =   0.0219479
        k(    6) = (   0.0000000   0.2222222   0.0000000), wk =   0.0164609
        k(    7) = (  -0.1111111   0.3333333  -0.1111111), wk =   0.0658436
        k(    8) = (  -0.2222222   0.4444444  -0.2222222), wk =   0.0658436
        k(    9) = (  -0.3333333   0.5555556  -0.3333333), wk =   0.0658436
        k(   10) = (   0.5555556  -0.3333333   0.5555556), wk =   0.0658436
        k(   11) = (   0.4444444  -0.2222222   0.4444444), wk =   0.0658436
        k(   12) = (   0.3333333  -0.1111111   0.3333333), wk =   0.0658436
        k(   13) = (   0.2222222  -0.0000000   0.2222222), wk =   0.0329218
        k(   14) = (   0.0000000   0.4444444   0.0000000), wk =   0.0164609
        k(   15) = (  -0.1111111   0.5555556  -0.1111111), wk =   0.0658436
        k(   16) = (  -0.2222222   0.6666667  -0.2222222), wk =   0.0658436
        k(   17) = (   0.6666667  -0.2222222   0.6666667), wk =   0.0658436
        k(   18) = (   0.5555556  -0.1111111   0.5555556), wk =   0.0658436
        k(   19) = (   0.4444444   0.0000000   0.4444444), wk =   0.0329218
        k(   20) = (   0.0000000   0.6666667   0.0000000), wk =   0.0164609
        k(   21) = (  -0.1111111   0.7777778  -0.1111111), wk =   0.0658436
        k(   22) = (   0.7777778  -0.1111111   0.7777778), wk =   0.0658436
        k(   23) = (   0.6666667  -0.0000000   0.6666667), wk =   0.0329218
        k(   24) = (   0.0000000   0.8888889   0.0000000), wk =   0.0164609
        k(   25) = (   0.8888889   0.0000000   0.8888889), wk =   0.0329218
        k(   26) = (  -0.2222222   0.4444444   0.0000000), wk =   0.0658436
        k(   27) = (  -0.3333333   0.5555556  -0.1111111), wk =   0.1316872
        k(   28) = (   0.5555556  -0.3333333   0.7777778), wk =   0.1316872
        k(   29) = (  -0.2222222   0.6666667   0.0000000), wk =   0.0658436
        k(   30) = (   0.6666667  -0.2222222   0.8888889), wk =   0.1316872
        k(   31) = (   0.5555556  -0.1111111   0.7777778), wk =   0.1316872
        k(   32) = (   0.4444444   0.0000000   0.6666667), wk =   0.0658436
        k(   33) = (   0.7777778  -0.1111111   1.0000000), wk =   0.0658436
        k(   34) = (   0.6666667  -0.0000000   0.8888889), wk =   0.0658436
        k(   35) = (   0.5555556  -0.1111111   1.0000000), wk =   0.0658436

     Dense  grid:    11935 G-vectors     FFT dimensions: (  32,  32,  32)

     Largest allocated arrays     est. size (Mb)     dimensions
        Kohn-Sham Wavefunctions         0.09 Mb     (    1516,    4)
        NL pseudopotentials             0.37 Mb     (    1516,   16)
        Each V/rho on FFT grid          0.50 Mb     (   32768)
        Each G-vector array             0.09 Mb     (   11935)
        G-vector shells                 0.00 Mb     (     170)
     Largest temporary arrays     est. size (Mb)     dimensions
        Auxiliary wavefunctions         0.37 Mb     (    1516,   16)
        Each subspace H/S matrix        0.00 Mb     (      16,   16)
        Each <psi_i|beta_j> matrix      0.00 Mb     (      16,    4)
        Arrays for rho mixing           4.00 Mb     (   32768,    8)

     Initial potential from superposition of free atoms

     starting charge    7.99888, renormalised to    8.00000
     Starting wfc are    8 randomized atomic wfcs
     Checking if some PAW data can be deallocated... 

     total cpu time spent up to now is        0.7 secs

     per-process dynamical memory:    12.5 Mb

     Self-consistent Calculation

     iteration #  1     ecut=    50.00 Ry     beta=0.70
     Davidson diagonalization with overlap
     ethr =  1.00E-02,  avg # of iterations =  2.0

     Threshold (ethr) on eigenvalues was too large:
     Diagonalizing with lowered threshold

     Davidson diagonalization with overlap
     ethr =  8.14E-04,  avg # of iterations =  1.0

     total cpu time spent up to now is        1.7 secs

     total energy              =     -93.44234203 Ry
     Harris-Foulkes estimate   =     -93.45984941 Ry
     estimated scf accuracy    <       0.06456688 Ry

     iteration #  2     ecut=    50.00 Ry     beta=0.70
     Davidson diagonalization with overlap
     ethr =  8.07E-04,  avg # of iterations =  1.0

     total cpu time spent up to now is        2.1 secs

     total energy              =     -93.44524538 Ry
     Harris-Foulkes estimate   =     -93.44534964 Ry
     estimated scf accuracy    <       0.00240719 Ry

     iteration #  3     ecut=    50.00 Ry     beta=0.70
     Davidson diagonalization with overlap
     ethr =  3.01E-05,  avg # of iterations =  2.2

     total cpu time spent up to now is        2.6 secs

     total energy              =     -93.44564465 Ry
     Harris-Foulkes estimate   =     -93.44566901 Ry
     estimated scf accuracy    <       0.00006796 Ry

     iteration #  4     ecut=    50.00 Ry     beta=0.70
     Davidson diagonalization with overlap
     ethr =  8.49E-07,  avg # of iterations =  2.8

     total cpu time spent up to now is        3.2 secs

     total energy              =     -93.44567373 Ry
     Harris-Foulkes estimate   =     -93.44567596 Ry
     estimated scf accuracy    <       0.00000573 Ry

     iteration #  5     ecut=    50.00 Ry     beta=0.70
     Davidson diagonalization with overlap
     ethr =  7.16E-08,  avg # of iterations =  2.3

     total cpu time spent up to now is        3.8 secs

     End of self-consistent calculation

          k = 0.0000 0.0000 0.0000 (  1459 PWs)   bands (ev):

    -5.4668   7.0551   7.0551   7.0551

          k =-0.1111 0.1111-0.1111 (  1459 PWs)   bands (ev):

    -5.2940   5.6831   6.7977   6.7977

          k =-0.2222 0.2222-0.2222 (  1474 PWs)   bands (ev):

    -4.7853   3.5036   6.3465   6.3465

          k =-0.3333 0.3333-0.3333 (  1477 PWs)   bands (ev):

    -3.9862   1.4717   5.9924   5.9924

          k =-0.4444 0.4444-0.4444 (  1486 PWs)   bands (ev):

    -3.1141  -0.0379   5.8098   5.8098

          k = 0.0000 0.2222 0.0000 (  1467 PWs)   bands (ev):

    -5.2360   6.0051   6.3131   6.3131

          k =-0.1111 0.3333-0.1111 (  1483 PWs)   bands (ev):

    -4.8375   4.1978   5.8064   6.0000

          k =-0.2222 0.4444-0.2222 (  1479 PWs)   bands (ev):

    -4.1267   2.1627   5.4691   5.4866

          k =-0.3333 0.5556-0.3333 (  1476 PWs)   bands (ev):

    -3.2252   0.4499   5.0041   5.4070

          k = 0.5556-0.3333 0.5556 (  1498 PWs)   bands (ev):

    -2.7990  -0.1819   4.7198   5.5642

          k = 0.4444-0.2222 0.4444 (  1487 PWs)   bands (ev):

    -3.5312   0.9660   4.6689   5.9230

          k = 0.3333-0.1111 0.3333 (  1495 PWs)   bands (ev):

    -4.3969   2.8225   4.8946   6.4067

          k = 0.2222-0.0000 0.2222 (  1472 PWs)   bands (ev):

    -5.0085   4.7024   5.5636   6.8268

          k = 0.0000 0.4444 0.0000 (  1479 PWs)   bands (ev):

    -4.5499   4.0633   5.2449   5.2449

          k =-0.1111 0.5556-0.1111 (  1490 PWs)   bands (ev):

    -3.9391   2.6284   4.5890   4.8818

          k =-0.2222 0.6667-0.2222 (  1488 PWs)   bands (ev):

    -3.0741   1.0278   3.8060   4.7818

          k = 0.6667-0.2222 0.6667 (  1493 PWs)   bands (ev):

    -2.3447  -0.0162   3.2486   4.9531

          k = 0.5556-0.1111 0.5556 (  1494 PWs)   bands (ev):

    -2.8034   0.6251   3.0351   5.3668

          k = 0.4444 0.0000 0.4444 (  1494 PWs)   bands (ev):

    -3.6994   1.9809   3.4197   5.9338

          k = 0.0000 0.6667 0.0000 (  1479 PWs)   bands (ev):

    -3.4289   1.9682   4.4526   4.4526

          k =-0.1111 0.7778-0.1111 (  1493 PWs)   bands (ev):

    -2.6342   0.8494   3.6515   4.2867

          k = 0.7778-0.1111 0.7778 (  1495 PWs)   bands (ev):

    -1.7624  -0.1219   2.6560   4.4041

          k = 0.6667-0.0000 0.6667 (  1516 PWs)   bands (ev):

    -1.9388   0.0687   2.2585   4.7879

          k = 0.0000 0.8889 0.0000 (  1508 PWs)   bands (ev):

    -1.9134  -0.0756   4.0426   4.0426

          k = 0.8889 0.0000 0.8889 (  1500 PWs)   bands (ev):

    -1.0731  -0.9061   3.3508   4.0836

          k =-0.2222 0.4444 0.0000 (  1490 PWs)   bands (ev):

    -4.3337   3.2012   4.4865   5.8178

          k =-0.3333 0.5556-0.1111 (  1491 PWs)   bands (ev):

    -3.5405   1.5962   3.8676   5.3336

          k = 0.5556-0.3333 0.7778 (  1500 PWs)   bands (ev):

    -2.6647   0.1853   3.6890   4.9738

          k =-0.2222 0.6667 0.0000 (  1498 PWs)   bands (ev):

    -3.2384   1.6360   3.7227   4.4683

          k = 0.6667-0.2222 0.8889 (  1499 PWs)   bands (ev):

    -2.3395   0.4675   3.0089   4.1285

          k = 0.5556-0.1111 0.7778 (  1499 PWs)   bands (ev):

    -1.9287  -0.0095   2.5873   4.2543

          k = 0.4444 0.0000 0.6667 (  1491 PWs)   bands (ev):

    -2.6999   0.8639   2.7356   4.7339

          k = 0.7778-0.1111 1.0000 (  1501 PWs)   bands (ev):

    -1.7810  -0.0831   3.4091   3.6284

          k = 0.6667-0.0000 0.8889 (  1502 PWs)   bands (ev):

    -1.1957  -0.5844   2.5980   3.7273

          k = 0.5556-0.1111 1.0000 (  1491 PWs)   bands (ev):

    -1.4653  -0.2333   2.6454   3.3381

     highest occupied level (ev):     7.0551

!    total energy              =     -93.44567495 Ry
     Harris-Foulkes estimate   =     -93.44567503 Ry
     estimated scf accuracy    <       0.00000008 Ry

     total all-electron energy =     -1160.137411 Ry

     The total energy is the sum of the following terms:

     one-electron contribution =       6.36294195 Ry
     hartree contribution      =       1.03023570 Ry
     xc contribution           =     -12.35111926 Ry
     ewald contribution        =     -17.23775377 Ry
     one-center paw contrib.   =     -71.24997956 Ry

     convergence has been achieved in   5 iterations

     Forces acting on atoms (Ry/au):

     atom    1 type  1   force =     0.00000000   -0.00000000    0.00000000
     atom    2 type  1   force =     0.00000000    0.00000000    0.00000000

     Total force =     0.000000     Total SCF correction =     0.000000


     entering subroutine stress ...

          total   stress  (Ry/bohr**3)                   (kbar)     P=  106.60
   0.00072468   0.00000000  -0.00000000        106.60      0.00     -0.00
   0.00000000   0.00072468  -0.00000000          0.00    106.60     -0.00
  -0.00000000  -0.00000000   0.00072468         -0.00     -0.00    106.60


     Writing output data file pwscf.save
 
     init_run     :      0.57s CPU      0.57s WALL (       1 calls)
     electrons    :      3.04s CPU      3.09s WALL (       1 calls)
     forces       :      0.06s CPU      0.06s WALL (       1 calls)
     stress       :      0.22s CPU      0.22s WALL (       1 calls)

     Called by init_run:
     wfcinit      :      0.24s CPU      0.24s WALL (       1 calls)
     potinit      :      0.11s CPU      0.11s WALL (       1 calls)

     Called by electrons:
     c_bands      :      2.00s CPU      2.03s WALL (       6 calls)
     sum_band     :      0.46s CPU      0.46s WALL (       6 calls)
     v_of_rho     :      0.11s CPU      0.11s WALL (       6 calls)
     newd         :      0.05s CPU      0.05s WALL (       6 calls)
     mix_rho      :      0.00s CPU      0.01s WALL (       6 calls)

     Called by c_bands:
     init_us_2    :      0.13s CPU      0.14s WALL (     525 calls)
     cegterg      :      1.79s CPU      1.81s WALL (     210 calls)

     Called by *egterg:
     h_psi        :      1.84s CPU      1.84s WALL (     643 calls)
     s_psi        :      0.03s CPU      0.03s WALL (     643 calls)
     g_psi        :      0.02s CPU      0.02s WALL (     398 calls)
     cdiaghg      :      0.02s CPU      0.02s WALL (     573 calls)

     Called by h_psi:
     add_vuspsi   :      0.04s CPU      0.03s WALL (     643 calls)

     General routines
     calbec       :      0.07s CPU      0.07s WALL (     923 calls)
     fft          :      0.05s CPU      0.05s WALL (     105 calls)
     fftw         :      1.82s CPU      1.83s WALL (    5806 calls)
     davcio       :      0.00s CPU      0.00s WALL (      35 calls)
 
     Parallel routines
     fft_scatter  :      0.21s CPU      0.22s WALL (    5911 calls)

     PAW routines
     PAW_pot      :      0.54s CPU      0.54s WALL (       6 calls)
     PAW_symme    :      0.00s CPU      0.00s WALL (      12 calls)
 
     PWSCF        :     4.08s CPU         4.20s WALL

 
   This run was terminated on:  10:28:58   1May2015            

=------------------------------------------------------------------------------=
   JOB DONE.
=------------------------------------------------------------------------------=
