
     Program PWSCF v.5.1 starts on  1May2015 at 10:28:58 

     This program is part of the open-source Quantum ESPRESSO suite
     for quantum simulation of materials; please cite
         "P. Giannozzi et al., J. Phys.:Condens. Matter 21 395502 (2009);
          URL http://www.quantum-espresso.org", 
     in publications or presentations arising from this work. More details at
     http://www.quantum-espresso.org/quote

     Parallel version (MPI), running on     1 processors
     Waiting for input...
     Reading input from standard input
Warning: card &IONS ignored
Warning: card / ignored
Warning: card &CELL ignored
Warning: card / ignored

     Current dimensions of program PWSCF are:
     Max number of different atomic species (ntypx) = 10
     Max number of k-points (npk) =  40000
     Max angular momentum in pseudopotentials (lmaxx) =  3
               file Si.pbe-n-kjpaw_psl.0.1.UPF: wavefunction(s)  3S renormalized

     Subspace diagonalization in iterative solution of the eigenvalue problem:
     a serial algorithm will be used

 
     G-vector sticks info
     --------------------
     sticks:   dense  smooth     PW     G-vecs:    dense   smooth      PW
     Sum         253     253     85                 2637     2637     537
 


     bravais-lattice index     =            2
     lattice parameter (alat)  =       6.0000  a.u.
     unit-cell volume          =      54.0000 (a.u.)^3
     number of atoms/cell      =            2
     number of atomic types    =            1
     number of electrons       =         8.00
     number of Kohn-Sham states=            4
     kinetic-energy cutoff     =      50.0000  Ry
     charge density cutoff     =     200.0000  Ry
     convergence threshold     =      1.0E-06
     mixing beta               =       0.7000
     number of iterations used =            8  plain     mixing
     Exchange-correlation      =  SLA  PW   PBX  PBC ( 1  4  3  4 0)

     celldm(1)=   6.000000  celldm(2)=   0.000000  celldm(3)=   0.000000
     celldm(4)=   0.000000  celldm(5)=   0.000000  celldm(6)=   0.000000

     crystal axes: (cart. coord. in units of alat)
               a(1) = (  -0.500000   0.000000   0.500000 )  
               a(2) = (   0.000000   0.500000   0.500000 )  
               a(3) = (  -0.500000   0.500000   0.000000 )  

     reciprocal axes: (cart. coord. in units 2 pi/alat)
               b(1) = ( -1.000000 -1.000000  1.000000 )  
               b(2) = (  1.000000  1.000000  1.000000 )  
               b(3) = ( -1.000000  1.000000 -1.000000 )  


     PseudoPot. # 1 for Si read from file:
     ./Si.pbe-n-kjpaw_psl.0.1.UPF
     MD5 check sum: b9d333a40e496bef61db012f150758bf
     Pseudo is Projector augmented-wave + core cor, Zval =  4.0
     Generated using "atomic" code by A. Dal Corso  v.5.0.2 svn rev. 9415
     Shape of augmentation charge: PSQ
     Using radial grid of 1141 points,  4 beta functions with: 
                l(1) =   0
                l(2) =   0
                l(3) =   1
                l(4) =   1
     Q(r) pseudized with 0 coefficients 


     atomic species   valence    mass     pseudopotential
        Si             4.00    28.05500     Si( 1.00)

     48 Sym. Ops., with inversion, found (24 have fractional translation)



   Cartesian axes

     site n.     atom                  positions (alat units)
         1           Si  tau(   1) = (   0.0000000   0.0000000   0.0000000  )
         2           Si  tau(   2) = (  -0.2500000   0.2500000   0.2500000  )

     number of k points=    35
                       cart. coord. in units 2pi/alat
        k(    1) = (   0.0000000   0.0000000   0.0000000), wk =   0.0027435
        k(    2) = (  -0.1111111   0.1111111  -0.1111111), wk =   0.0219479
        k(    3) = (  -0.2222222   0.2222222  -0.2222222), wk =   0.0219479
        k(    4) = (  -0.3333333   0.3333333  -0.3333333), wk =   0.0219479
        k(    5) = (  -0.4444444   0.4444444  -0.4444444), wk =   0.0219479
        k(    6) = (   0.0000000   0.2222222   0.0000000), wk =   0.0164609
        k(    7) = (  -0.1111111   0.3333333  -0.1111111), wk =   0.0658436
        k(    8) = (  -0.2222222   0.4444444  -0.2222222), wk =   0.0658436
        k(    9) = (  -0.3333333   0.5555556  -0.3333333), wk =   0.0658436
        k(   10) = (   0.5555556  -0.3333333   0.5555556), wk =   0.0658436
        k(   11) = (   0.4444444  -0.2222222   0.4444444), wk =   0.0658436
        k(   12) = (   0.3333333  -0.1111111   0.3333333), wk =   0.0658436
        k(   13) = (   0.2222222  -0.0000000   0.2222222), wk =   0.0329218
        k(   14) = (   0.0000000   0.4444444   0.0000000), wk =   0.0164609
        k(   15) = (  -0.1111111   0.5555556  -0.1111111), wk =   0.0658436
        k(   16) = (  -0.2222222   0.6666667  -0.2222222), wk =   0.0658436
        k(   17) = (   0.6666667  -0.2222222   0.6666667), wk =   0.0658436
        k(   18) = (   0.5555556  -0.1111111   0.5555556), wk =   0.0658436
        k(   19) = (   0.4444444   0.0000000   0.4444444), wk =   0.0329218
        k(   20) = (   0.0000000   0.6666667   0.0000000), wk =   0.0164609
        k(   21) = (  -0.1111111   0.7777778  -0.1111111), wk =   0.0658436
        k(   22) = (   0.7777778  -0.1111111   0.7777778), wk =   0.0658436
        k(   23) = (   0.6666667  -0.0000000   0.6666667), wk =   0.0329218
        k(   24) = (   0.0000000   0.8888889   0.0000000), wk =   0.0164609
        k(   25) = (   0.8888889   0.0000000   0.8888889), wk =   0.0329218
        k(   26) = (  -0.2222222   0.4444444   0.0000000), wk =   0.0658436
        k(   27) = (  -0.3333333   0.5555556  -0.1111111), wk =   0.1316872
        k(   28) = (   0.5555556  -0.3333333   0.7777778), wk =   0.1316872
        k(   29) = (  -0.2222222   0.6666667   0.0000000), wk =   0.0658436
        k(   30) = (   0.6666667  -0.2222222   0.8888889), wk =   0.1316872
        k(   31) = (   0.5555556  -0.1111111   0.7777778), wk =   0.1316872
        k(   32) = (   0.4444444   0.0000000   0.6666667), wk =   0.0658436
        k(   33) = (   0.7777778  -0.1111111   1.0000000), wk =   0.0658436
        k(   34) = (   0.6666667  -0.0000000   0.8888889), wk =   0.0658436
        k(   35) = (   0.5555556  -0.1111111   1.0000000), wk =   0.0658436

     Dense  grid:     2637 G-vectors     FFT dimensions: (  20,  20,  20)

     Largest allocated arrays     est. size (Mb)     dimensions
        Kohn-Sham Wavefunctions         0.02 Mb     (     331,    4)
        NL pseudopotentials             0.08 Mb     (     331,   16)
        Each V/rho on FFT grid          0.12 Mb     (    8000)
        Each G-vector array             0.02 Mb     (    2637)
        G-vector shells                 0.00 Mb     (      63)
     Largest temporary arrays     est. size (Mb)     dimensions
        Auxiliary wavefunctions         0.08 Mb     (     331,   16)
        Each subspace H/S matrix        0.00 Mb     (      16,   16)
        Each <psi_i|beta_j> matrix      0.00 Mb     (      16,    4)
        Arrays for rho mixing           0.98 Mb     (    8000,    8)

     Initial potential from superposition of free atoms

     starting charge    7.99888, renormalised to    8.00000
     Starting wfc are    8 randomized atomic wfcs
     Checking if some PAW data can be deallocated... 

     total cpu time spent up to now is        0.4 secs

     per-process dynamical memory:     6.8 Mb

     Self-consistent Calculation

     iteration #  1     ecut=    50.00 Ry     beta=0.70
     Davidson diagonalization with overlap
     ethr =  1.00E-02,  avg # of iterations =  3.6

     Threshold (ethr) on eigenvalues was too large:
     Diagonalizing with lowered threshold

     Davidson diagonalization with overlap
     ethr =  3.14E-04,  avg # of iterations =  2.3

     total cpu time spent up to now is        0.8 secs

     total energy              =     -87.62243727 Ry
     Harris-Foulkes estimate   =     -87.69622924 Ry
     estimated scf accuracy    <       0.02523044 Ry

     iteration #  2     ecut=    50.00 Ry     beta=0.70
     Davidson diagonalization with overlap
     ethr =  3.15E-04,  avg # of iterations =  2.7

     total cpu time spent up to now is        1.1 secs

     total energy              =     -87.63392704 Ry
     Harris-Foulkes estimate   =     -87.63718248 Ry
     estimated scf accuracy    <       0.00372798 Ry

     iteration #  3     ecut=    50.00 Ry     beta=0.70
     Davidson diagonalization with overlap
     ethr =  4.66E-05,  avg # of iterations =  2.4

     total cpu time spent up to now is        1.3 secs

     total energy              =     -87.63788919 Ry
     Harris-Foulkes estimate   =     -87.63786709 Ry
     estimated scf accuracy    <       0.00003498 Ry

     iteration #  4     ecut=    50.00 Ry     beta=0.70
     Davidson diagonalization with overlap
     ethr =  4.37E-07,  avg # of iterations =  3.5

     total cpu time spent up to now is        1.6 secs

     End of self-consistent calculation

          k = 0.0000 0.0000 0.0000 (   331 PWs)   bands (ev):

    11.0420  41.6432  41.6432  41.6432

          k =-0.1111 0.1111-0.1111 (   329 PWs)   bands (ev):

    11.5568  37.9673  40.6977  40.6977

          k =-0.2222 0.2222-0.2222 (   320 PWs)   bands (ev):

    13.0667  32.8432  39.5370  39.5370

          k =-0.3333 0.3333-0.3333 (   314 PWs)   bands (ev):

    15.4644  27.8412  38.6916  38.6916

          k =-0.4444 0.4444-0.4444 (   329 PWs)   bands (ev):

    18.4250  23.5505  38.2413  38.2413

          k = 0.0000 0.2222 0.0000 (   327 PWs)   bands (ev):

    11.7264  39.1374  39.1374  40.1039

          k =-0.1111 0.3333-0.1111 (   321 PWs)   bands (ev):

    12.8989  34.7866  37.9826  39.1810

          k =-0.2222 0.4444-0.2222 (   324 PWs)   bands (ev):

    14.9935  29.7428  37.3103  37.5995

          k =-0.3333 0.5556-0.3333 (   324 PWs)   bands (ev):

    17.8111  25.1773  36.2956  37.1531

          k = 0.5556-0.3333 0.5556 (   324 PWs)   bands (ev):

    19.5327  23.0189  35.5006  37.5547

          k = 0.4444-0.2222 0.4444 (   320 PWs)   bands (ev):

    16.8184  26.6193  35.2787  38.5472

          k = 0.3333-0.1111 0.3333 (   322 PWs)   bands (ev):

    14.2026  31.4067  35.6536  40.0828

          k = 0.2222-0.0000 0.2222 (   317 PWs)   bands (ev):

    12.4013  36.2176  36.8576  41.5817

          k = 0.0000 0.4444 0.0000 (   315 PWs)   bands (ev):

    13.7115  35.6947  36.8020  36.8020

          k =-0.1111 0.5556-0.1111 (   320 PWs)   bands (ev):

    15.4500  31.7495  34.9079  36.1038

          k =-0.2222 0.6667-0.2222 (   322 PWs)   bands (ev):

    17.9744  27.3815  32.8769  35.9062

          k = 0.6667-0.2222 0.6667 (   320 PWs)   bands (ev):

    20.5546  24.0486  31.5053  36.2342

          k = 0.5556-0.1111 0.5556 (   324 PWs)   bands (ev):

    18.9237  26.1447  30.8459  37.1137

          k = 0.4444 0.0000 0.4444 (   319 PWs)   bands (ev):

    16.2239  30.1132  31.3520  38.5258

          k = 0.0000 0.6667 0.0000 (   323 PWs)   bands (ev):

    16.8084  30.3774  35.3445  35.3445

          k =-0.1111 0.7778-0.1111 (   324 PWs)   bands (ev):

    18.9720  27.7203  32.2558  35.0570

          k = 0.7778-0.1111 0.7778 (   320 PWs)   bands (ev):

    21.6035  25.2571  29.1425  35.2516

          k = 0.6667-0.0000 0.6667 (   323 PWs)   bands (ev):

    21.4275  25.6140  27.9140  35.9408

          k = 0.0000 0.8889 0.0000 (   322 PWs)   bands (ev):

    20.7599  25.3300  34.6621  34.6621

          k = 0.8889 0.0000 0.8889 (   326 PWs)   bands (ev):

    23.0785  23.2748  31.5418  34.7256

          k =-0.2222 0.4444 0.0000 (   323 PWs)   bands (ev):

    14.3577  33.0716  34.2271  38.2682

          k =-0.3333 0.5556-0.1111 (   320 PWs)   bands (ev):

    16.6707  28.6874  33.1452  36.6036

          k = 0.5556-0.3333 0.7778 (   324 PWs)   bands (ev):

    19.5021  24.5907  32.9210  35.5508

          k =-0.2222 0.6667 0.0000 (   324 PWs)   bands (ev):

    17.4026  29.6997  32.4423  34.2738

          k = 0.6667-0.2222 0.8889 (   324 PWs)   bands (ev):

    20.0147  26.5555  30.5162  33.3052

          k = 0.5556-0.1111 0.7778 (   323 PWs)   bands (ev):

    21.5353  24.8832  29.3684  33.6590

          k = 0.4444 0.0000 0.6667 (   324 PWs)   bands (ev):

    19.0834  27.6499  29.4914  34.8618

          k = 0.7778-0.1111 1.0000 (   322 PWs)   bands (ev):

    21.2509  25.5446  31.6952  32.1776

          k = 0.6667-0.0000 0.8889 (   325 PWs)   bands (ev):

    23.2522  24.2373  28.8495  32.4256

          k = 0.5556-0.1111 1.0000 (   319 PWs)   bands (ev):

    22.4670  25.4160  29.0630  30.8655

     highest occupied level (ev):    41.6432

!    total energy              =     -87.63833403 Ry
     Harris-Foulkes estimate   =     -87.63834469 Ry
     estimated scf accuracy    <       0.00000079 Ry

     total all-electron energy =     -1154.330070 Ry

     The total energy is the sum of the following terms:

     one-electron contribution =      28.28707862 Ry
     hartree contribution      =       0.06374637 Ry
     xc contribution           =     -15.26880076 Ry
     ewald contribution        =     -28.72958975 Ry
     one-center paw contrib.   =     -71.99076851 Ry

     convergence has been achieved in   4 iterations

     Forces acting on atoms (Ry/au):

     atom    1 type  1   force =     0.00000000    0.00000000    0.00000000
     atom    2 type  1   force =    -0.00000000   -0.00000000   -0.00000000

     Total force =     0.000000     Total SCF correction =     0.000000


     entering subroutine stress ...

          total   stress  (Ry/bohr**3)                   (kbar)     P=26920.89
   0.18300451   0.00000000   0.00000000      26920.89      0.00      0.00
   0.00000000   0.18300451  -0.00000000          0.00  26920.89     -0.00
   0.00000000  -0.00000000   0.18300451          0.00     -0.00  26920.89


     Writing output data file pwscf.save
 
     init_run     :      0.32s CPU      0.32s WALL (       1 calls)
     electrons    :      1.10s CPU      1.13s WALL (       1 calls)
     forces       :      0.02s CPU      0.01s WALL (       1 calls)
     stress       :      0.05s CPU      0.05s WALL (       1 calls)

     Called by init_run:
     wfcinit      :      0.07s CPU      0.07s WALL (       1 calls)
     potinit      :      0.10s CPU      0.10s WALL (       1 calls)

     Called by electrons:
     c_bands      :      0.61s CPU      0.63s WALL (       5 calls)
     sum_band     :      0.11s CPU      0.11s WALL (       5 calls)
     v_of_rho     :      0.02s CPU      0.02s WALL (       5 calls)
     newd         :      0.01s CPU      0.01s WALL (       5 calls)
     mix_rho      :      0.00s CPU      0.00s WALL (       5 calls)

     Called by c_bands:
     init_us_2    :      0.03s CPU      0.03s WALL (     455 calls)
     cegterg      :      0.56s CPU      0.59s WALL (     175 calls)

     Called by *egterg:
     h_psi        :      0.56s CPU      0.58s WALL (     720 calls)
     s_psi        :      0.01s CPU      0.01s WALL (     720 calls)
     g_psi        :      0.01s CPU      0.01s WALL (     510 calls)
     cdiaghg      :      0.02s CPU      0.03s WALL (     650 calls)

     Called by h_psi:
     add_vuspsi   :      0.01s CPU      0.01s WALL (     720 calls)

     General routines
     calbec       :      0.01s CPU      0.02s WALL (     965 calls)
     fft          :      0.02s CPU      0.01s WALL (      92 calls)
     fftw         :      0.57s CPU      0.58s WALL (    5710 calls)
     davcio       :      0.00s CPU      0.00s WALL (      35 calls)
 
     Parallel routines
     fft_scatter  :      0.03s CPU      0.03s WALL (    5802 calls)

     PAW routines
     PAW_pot      :      0.44s CPU      0.44s WALL (       5 calls)
     PAW_symme    :      0.00s CPU      0.00s WALL (      10 calls)
 
     PWSCF        :     1.66s CPU         1.75s WALL

 
   This run was terminated on:  10:29: 0   1May2015            

=------------------------------------------------------------------------------=
   JOB DONE.
=------------------------------------------------------------------------------=
