
     Program PWSCF v.5.1 starts on  1May2015 at 10:27:28 

     This program is part of the open-source Quantum ESPRESSO suite
     for quantum simulation of materials; please cite
         "P. Giannozzi et al., J. Phys.:Condens. Matter 21 395502 (2009);
          URL http://www.quantum-espresso.org", 
     in publications or presentations arising from this work. More details at
     http://www.quantum-espresso.org/quote

     Parallel version (MPI), running on     1 processors
     Waiting for input...
     Reading input from standard input
Warning: card &IONS ignored
Warning: card / ignored
Warning: card &CELL ignored
Warning: card / ignored

     Current dimensions of program PWSCF are:
     Max number of different atomic species (ntypx) = 10
     Max number of k-points (npk) =  40000
     Max angular momentum in pseudopotentials (lmaxx) =  3
               file Si.pbe-n-kjpaw_psl.0.1.UPF: wavefunction(s)  3S renormalized

     Subspace diagonalization in iterative solution of the eigenvalue problem:
     a serial algorithm will be used

 
     G-vector sticks info
     --------------------
     sticks:   dense  smooth     PW     G-vecs:    dense   smooth      PW
     Sum         745     745    223                13107    13107    2229
 


     bravais-lattice index     =            2
     lattice parameter (alat)  =      10.3100  a.u.
     unit-cell volume          =     273.9782 (a.u.)^3
     number of atoms/cell      =            2
     number of atomic types    =            1
     number of electrons       =         8.00
     number of Kohn-Sham states=            4
     kinetic-energy cutoff     =      50.0000  Ry
     charge density cutoff     =     200.0000  Ry
     convergence threshold     =      1.0E-06
     mixing beta               =       0.7000
     number of iterations used =            8  plain     mixing
     Exchange-correlation      =  SLA  PW   PBX  PBC ( 1  4  3  4 0)

     celldm(1)=  10.310000  celldm(2)=   0.000000  celldm(3)=   0.000000
     celldm(4)=   0.000000  celldm(5)=   0.000000  celldm(6)=   0.000000

     crystal axes: (cart. coord. in units of alat)
               a(1) = (  -0.500000   0.000000   0.500000 )  
               a(2) = (   0.000000   0.500000   0.500000 )  
               a(3) = (  -0.500000   0.500000   0.000000 )  

     reciprocal axes: (cart. coord. in units 2 pi/alat)
               b(1) = ( -1.000000 -1.000000  1.000000 )  
               b(2) = (  1.000000  1.000000  1.000000 )  
               b(3) = ( -1.000000  1.000000 -1.000000 )  


     PseudoPot. # 1 for Si read from file:
     ./Si.pbe-n-kjpaw_psl.0.1.UPF
     MD5 check sum: b9d333a40e496bef61db012f150758bf
     Pseudo is Projector augmented-wave + core cor, Zval =  4.0
     Generated using "atomic" code by A. Dal Corso  v.5.0.2 svn rev. 9415
     Shape of augmentation charge: PSQ
     Using radial grid of 1141 points,  4 beta functions with: 
                l(1) =   0
                l(2) =   0
                l(3) =   1
                l(4) =   1
     Q(r) pseudized with 0 coefficients 


     atomic species   valence    mass     pseudopotential
        Si             4.00    28.05500     Si( 1.00)

     48 Sym. Ops., with inversion, found (24 have fractional translation)



   Cartesian axes

     site n.     atom                  positions (alat units)
         1           Si  tau(   1) = (   0.0000000   0.0000000   0.0000000  )
         2           Si  tau(   2) = (  -0.2500000   0.2500000   0.2500000  )

     number of k points=    35
                       cart. coord. in units 2pi/alat
        k(    1) = (   0.0000000   0.0000000   0.0000000), wk =   0.0027435
        k(    2) = (  -0.1111111   0.1111111  -0.1111111), wk =   0.0219479
        k(    3) = (  -0.2222222   0.2222222  -0.2222222), wk =   0.0219479
        k(    4) = (  -0.3333333   0.3333333  -0.3333333), wk =   0.0219479
        k(    5) = (  -0.4444444   0.4444444  -0.4444444), wk =   0.0219479
        k(    6) = (   0.0000000   0.2222222   0.0000000), wk =   0.0164609
        k(    7) = (  -0.1111111   0.3333333  -0.1111111), wk =   0.0658436
        k(    8) = (  -0.2222222   0.4444444  -0.2222222), wk =   0.0658436
        k(    9) = (  -0.3333333   0.5555556  -0.3333333), wk =   0.0658436
        k(   10) = (   0.5555556  -0.3333333   0.5555556), wk =   0.0658436
        k(   11) = (   0.4444444  -0.2222222   0.4444444), wk =   0.0658436
        k(   12) = (   0.3333333  -0.1111111   0.3333333), wk =   0.0658436
        k(   13) = (   0.2222222  -0.0000000   0.2222222), wk =   0.0329218
        k(   14) = (   0.0000000   0.4444444   0.0000000), wk =   0.0164609
        k(   15) = (  -0.1111111   0.5555556  -0.1111111), wk =   0.0658436
        k(   16) = (  -0.2222222   0.6666667  -0.2222222), wk =   0.0658436
        k(   17) = (   0.6666667  -0.2222222   0.6666667), wk =   0.0658436
        k(   18) = (   0.5555556  -0.1111111   0.5555556), wk =   0.0658436
        k(   19) = (   0.4444444   0.0000000   0.4444444), wk =   0.0329218
        k(   20) = (   0.0000000   0.6666667   0.0000000), wk =   0.0164609
        k(   21) = (  -0.1111111   0.7777778  -0.1111111), wk =   0.0658436
        k(   22) = (   0.7777778  -0.1111111   0.7777778), wk =   0.0658436
        k(   23) = (   0.6666667  -0.0000000   0.6666667), wk =   0.0329218
        k(   24) = (   0.0000000   0.8888889   0.0000000), wk =   0.0164609
        k(   25) = (   0.8888889   0.0000000   0.8888889), wk =   0.0329218
        k(   26) = (  -0.2222222   0.4444444   0.0000000), wk =   0.0658436
        k(   27) = (  -0.3333333   0.5555556  -0.1111111), wk =   0.1316872
        k(   28) = (   0.5555556  -0.3333333   0.7777778), wk =   0.1316872
        k(   29) = (  -0.2222222   0.6666667   0.0000000), wk =   0.0658436
        k(   30) = (   0.6666667  -0.2222222   0.8888889), wk =   0.1316872
        k(   31) = (   0.5555556  -0.1111111   0.7777778), wk =   0.1316872
        k(   32) = (   0.4444444   0.0000000   0.6666667), wk =   0.0658436
        k(   33) = (   0.7777778  -0.1111111   1.0000000), wk =   0.0658436
        k(   34) = (   0.6666667  -0.0000000   0.8888889), wk =   0.0658436
        k(   35) = (   0.5555556  -0.1111111   1.0000000), wk =   0.0658436

     Dense  grid:    13107 G-vectors     FFT dimensions: (  36,  36,  36)

     Largest allocated arrays     est. size (Mb)     dimensions
        Kohn-Sham Wavefunctions         0.10 Mb     (    1652,    4)
        NL pseudopotentials             0.40 Mb     (    1652,   16)
        Each V/rho on FFT grid          0.71 Mb     (   46656)
        Each G-vector array             0.10 Mb     (   13107)
        G-vector shells                 0.00 Mb     (     181)
     Largest temporary arrays     est. size (Mb)     dimensions
        Auxiliary wavefunctions         0.40 Mb     (    1652,   16)
        Each subspace H/S matrix        0.00 Mb     (      16,   16)
        Each <psi_i|beta_j> matrix      0.00 Mb     (      16,    4)
        Arrays for rho mixing           5.70 Mb     (   46656,    8)

     Check: negative/imaginary core charge=   -0.000001    0.000000

     Initial potential from superposition of free atoms

     starting charge    7.99888, renormalised to    8.00000
     Starting wfc are    8 randomized atomic wfcs
     Checking if some PAW data can be deallocated... 

     total cpu time spent up to now is        0.9 secs

     per-process dynamical memory:    14.4 Mb

     Self-consistent Calculation

     iteration #  1     ecut=    50.00 Ry     beta=0.70
     Davidson diagonalization with overlap
     ethr =  1.00E-02,  avg # of iterations =  2.0

     Threshold (ethr) on eigenvalues was too large:
     Diagonalizing with lowered threshold

     Davidson diagonalization with overlap
     ethr =  7.03E-04,  avg # of iterations =  1.0

     total cpu time spent up to now is        2.2 secs

     total energy              =     -93.45187210 Ry
     Harris-Foulkes estimate   =     -93.46504137 Ry
     estimated scf accuracy    <       0.05566273 Ry

     iteration #  2     ecut=    50.00 Ry     beta=0.70
     Davidson diagonalization with overlap
     ethr =  6.96E-04,  avg # of iterations =  1.0

     total cpu time spent up to now is        2.9 secs

     total energy              =     -93.45387300 Ry
     Harris-Foulkes estimate   =     -93.45401006 Ry
     estimated scf accuracy    <       0.00244083 Ry

     iteration #  3     ecut=    50.00 Ry     beta=0.70
     Davidson diagonalization with overlap
     ethr =  3.05E-05,  avg # of iterations =  2.0

     total cpu time spent up to now is        3.6 secs

     total energy              =     -93.45415288 Ry
     Harris-Foulkes estimate   =     -93.45417116 Ry
     estimated scf accuracy    <       0.00005218 Ry

     iteration #  4     ecut=    50.00 Ry     beta=0.70
     Davidson diagonalization with overlap
     ethr =  6.52E-07,  avg # of iterations =  2.9

     total cpu time spent up to now is        4.5 secs

     total energy              =     -93.45417863 Ry
     Harris-Foulkes estimate   =     -93.45417967 Ry
     estimated scf accuracy    <       0.00000273 Ry

     iteration #  5     ecut=    50.00 Ry     beta=0.70
     Davidson diagonalization with overlap
     ethr =  3.41E-08,  avg # of iterations =  2.7

     total cpu time spent up to now is        5.4 secs

     End of self-consistent calculation

          k = 0.0000 0.0000 0.0000 (  1639 PWs)   bands (ev):

    -5.8053   6.0664   6.0664   6.0664

          k =-0.1111 0.1111-0.1111 (  1636 PWs)   bands (ev):

    -5.6456   4.7236   5.8320   5.8320

          k =-0.2222 0.2222-0.2222 (  1639 PWs)   bands (ev):

    -5.1764   2.6636   5.4121   5.4121

          k =-0.3333 0.3333-0.3333 (  1634 PWs)   bands (ev):

    -4.4451   0.7712   5.0764   5.0764

          k =-0.4444 0.4444-0.4444 (  1643 PWs)   bands (ev):

    -3.6664  -0.6060   4.9014   4.9014

          k = 0.0000 0.2222 0.0000 (  1631 PWs)   bands (ev):

    -5.5919   4.9413   5.3993   5.3993

          k =-0.1111 0.3333-0.1111 (  1632 PWs)   bands (ev):

    -5.2239   3.2747   4.9309   5.0605

          k =-0.2222 0.4444-0.2222 (  1628 PWs)   bands (ev):

    -4.5709   1.3880   4.5587   4.6280

          k =-0.3333 0.5556-0.3333 (  1630 PWs)   bands (ev):

    -3.7563  -0.1826   4.1272   4.5454

          k = 0.5556-0.3333 0.5556 (  1638 PWs)   bands (ev):

    -3.3846  -0.7457   3.8720   4.6827

          k = 0.4444-0.2222 0.4444 (  1641 PWs)   bands (ev):

    -4.0305   0.2875   3.8405   5.0089

          k = 0.3333-0.1111 0.3333 (  1637 PWs)   bands (ev):

    -4.8189   1.9966   4.0737   5.4535

          k = 0.2222-0.0000 0.2222 (  1614 PWs)   bands (ev):

    -5.3819   3.7447   4.7212   5.8432

          k = 0.0000 0.4444 0.0000 (  1628 PWs)   bands (ev):

    -4.9577   3.0390   4.4158   4.4158

          k =-0.1111 0.5556-0.1111 (  1643 PWs)   bands (ev):

    -4.3948   1.7213   3.7957   4.0768

          k =-0.2222 0.6667-0.2222 (  1626 PWs)   bands (ev):

    -3.6059   0.2693   3.0617   3.9791

          k = 0.6667-0.2222 0.6667 (  1631 PWs)   bands (ev):

    -2.9619  -0.6575   2.5476   4.1318

          k = 0.5556-0.1111 0.5556 (  1629 PWs)   bands (ev):

    -3.3675  -0.0887   2.3710   4.5079

          k = 0.4444 0.0000 0.4444 (  1638 PWs)   bands (ev):

    -4.1790   1.1430   2.7553   5.0234

          k = 0.0000 0.6667 0.0000 (  1640 PWs)   bands (ev):

    -3.9224   1.0653   3.6799   3.6799

          k =-0.1111 0.7778-0.1111 (  1641 PWs)   bands (ev):

    -3.1923   0.0257   2.9660   3.5240

          k = 0.7778-0.1111 0.7778 (  1642 PWs)   bands (ev):

    -2.4098  -0.8607   2.0759   3.6297

          k = 0.6667-0.0000 0.6667 (  1652 PWs)   bands (ev):

    -2.5835  -0.6707   1.7183   3.9807

          k = 0.0000 0.8889 0.0000 (  1644 PWs)   bands (ev):

    -2.5244  -0.8290   3.2979   3.2979

          k = 0.8889 0.0000 0.8889 (  1644 PWs)   bands (ev):

    -1.7624  -1.5926   2.6944   3.3350

          k =-0.2222 0.4444 0.0000 (  1642 PWs)   bands (ev):

    -4.7595   2.2841   3.7306   4.9127

          k =-0.3333 0.5556-0.1111 (  1624 PWs)   bands (ev):

    -4.0332   0.8123   3.1260   4.4821

          k = 0.5556-0.3333 0.7778 (  1637 PWs)   bands (ev):

    -3.2488  -0.4575   2.9315   4.1642

          k =-0.2222 0.6667 0.0000 (  1638 PWs)   bands (ev):

    -3.7507   0.7664   3.0272   3.7088

          k = 0.6667-0.2222 0.8889 (  1646 PWs)   bands (ev):

    -2.9350  -0.3044   2.3710   3.4079

          k = 0.5556-0.1111 0.7778 (  1636 PWs)   bands (ev):

    -2.5764  -0.7227   1.9899   3.5185

          k = 0.4444 0.0000 0.6667 (  1635 PWs)   bands (ev):

    -3.2669   0.0683   2.1367   3.9490

          k = 0.7778-0.1111 1.0000 (  1651 PWs)   bands (ev):

    -2.4105  -0.8461   2.7438   2.9516

          k = 0.6667-0.0000 0.8889 (  1640 PWs)   bands (ev):

    -1.8971  -1.3010   2.0334   3.0383

          k = 0.5556-0.1111 1.0000 (  1627 PWs)   bands (ev):

    -2.1397  -0.9915   2.0709   2.7051

     highest occupied level (ev):     6.0664

!    total energy              =     -93.45417950 Ry
     Harris-Foulkes estimate   =     -93.45417958 Ry
     estimated scf accuracy    <       0.00000008 Ry

     total all-electron energy =     -1160.145916 Ry

     The total energy is the sum of the following terms:

     one-electron contribution =       5.62611933 Ry
     hartree contribution      =       1.11019087 Ry
     xc contribution           =     -12.23908300 Ry
     ewald contribution        =     -16.71945080 Ry
     one-center paw contrib.   =     -71.23195591 Ry

     convergence has been achieved in   5 iterations

     Forces acting on atoms (Ry/au):

     atom    1 type  1   force =     0.00000000    0.00000000    0.00000000
     atom    2 type  1   force =    -0.00000000   -0.00000000   -0.00000000

     Total force =     0.000000     Total SCF correction =     0.000000


     entering subroutine stress ...

          total   stress  (Ry/bohr**3)                   (kbar)     P=    5.13
   0.00003488  -0.00000000  -0.00000000          5.13     -0.00     -0.00
  -0.00000000   0.00003488   0.00000000         -0.00      5.13      0.00
  -0.00000000   0.00000000   0.00003488         -0.00      0.00      5.13


     Writing output data file pwscf.save
 
     init_run     :      0.73s CPU      0.74s WALL (       1 calls)
     electrons    :      4.52s CPU      4.55s WALL (       1 calls)
     forces       :      0.07s CPU      0.07s WALL (       1 calls)
     stress       :      0.25s CPU      0.25s WALL (       1 calls)

     Called by init_run:
     wfcinit      :      0.39s CPU      0.39s WALL (       1 calls)
     potinit      :      0.12s CPU      0.12s WALL (       1 calls)

     Called by electrons:
     c_bands      :      3.20s CPU      3.22s WALL (       6 calls)
     sum_band     :      0.69s CPU      0.70s WALL (       6 calls)
     v_of_rho     :      0.16s CPU      0.17s WALL (       6 calls)
     newd         :      0.05s CPU      0.05s WALL (       6 calls)
     mix_rho      :      0.01s CPU      0.01s WALL (       6 calls)

     Called by c_bands:
     init_us_2    :      0.16s CPU      0.15s WALL (     525 calls)
     cegterg      :      2.97s CPU      2.98s WALL (     210 calls)

     Called by *egterg:
     h_psi        :      3.14s CPU      3.14s WALL (     654 calls)
     s_psi        :      0.03s CPU      0.03s WALL (     654 calls)
     g_psi        :      0.03s CPU      0.03s WALL (     409 calls)
     cdiaghg      :      0.03s CPU      0.02s WALL (     584 calls)

     Called by h_psi:
     add_vuspsi   :      0.04s CPU      0.03s WALL (     654 calls)

     General routines
     calbec       :      0.07s CPU      0.07s WALL (     934 calls)
     fft          :      0.09s CPU      0.09s WALL (     105 calls)
     fftw         :      3.23s CPU      3.27s WALL (    5840 calls)
     davcio       :      0.00s CPU      0.00s WALL (      35 calls)
 
     Parallel routines
     fft_scatter  :      0.21s CPU      0.21s WALL (    5945 calls)

     PAW routines
     PAW_pot      :      0.53s CPU      0.53s WALL (       6 calls)
     PAW_symme    :      0.00s CPU      0.00s WALL (      12 calls)
 
     PWSCF        :     5.77s CPU         5.88s WALL

 
   This run was terminated on:  10:27:34   1May2015            

=------------------------------------------------------------------------------=
   JOB DONE.
=------------------------------------------------------------------------------=
