
     Program PWSCF v.5.1 starts on  1May2015 at 10:27:10 

     This program is part of the open-source Quantum ESPRESSO suite
     for quantum simulation of materials; please cite
         "P. Giannozzi et al., J. Phys.:Condens. Matter 21 395502 (2009);
          URL http://www.quantum-espresso.org", 
     in publications or presentations arising from this work. More details at
     http://www.quantum-espresso.org/quote

     Parallel version (MPI), running on     1 processors
     Waiting for input...
     Reading input from standard input
Warning: card &IONS ignored
Warning: card / ignored
Warning: card &CELL ignored
Warning: card / ignored

     Current dimensions of program PWSCF are:
     Max number of different atomic species (ntypx) = 10
     Max number of k-points (npk) =  40000
     Max angular momentum in pseudopotentials (lmaxx) =  3
               file Si.pbe-n-kjpaw_psl.0.1.UPF: wavefunction(s)  3S renormalized

     Subspace diagonalization in iterative solution of the eigenvalue problem:
     a serial algorithm will be used

 
     G-vector sticks info
     --------------------
     sticks:   dense  smooth     PW     G-vecs:    dense   smooth      PW
     Sum         733     733    223                12939    12939    2229
 


     bravais-lattice index     =            2
     lattice parameter (alat)  =      10.2600  a.u.
     unit-cell volume          =     270.0114 (a.u.)^3
     number of atoms/cell      =            2
     number of atomic types    =            1
     number of electrons       =         8.00
     number of Kohn-Sham states=            4
     kinetic-energy cutoff     =      50.0000  Ry
     charge density cutoff     =     200.0000  Ry
     convergence threshold     =      1.0E-06
     mixing beta               =       0.7000
     number of iterations used =            8  plain     mixing
     Exchange-correlation      =  SLA  PW   PBX  PBC ( 1  4  3  4 0)

     celldm(1)=  10.260000  celldm(2)=   0.000000  celldm(3)=   0.000000
     celldm(4)=   0.000000  celldm(5)=   0.000000  celldm(6)=   0.000000

     crystal axes: (cart. coord. in units of alat)
               a(1) = (  -0.500000   0.000000   0.500000 )  
               a(2) = (   0.000000   0.500000   0.500000 )  
               a(3) = (  -0.500000   0.500000   0.000000 )  

     reciprocal axes: (cart. coord. in units 2 pi/alat)
               b(1) = ( -1.000000 -1.000000  1.000000 )  
               b(2) = (  1.000000  1.000000  1.000000 )  
               b(3) = ( -1.000000  1.000000 -1.000000 )  


     PseudoPot. # 1 for Si read from file:
     ./Si.pbe-n-kjpaw_psl.0.1.UPF
     MD5 check sum: b9d333a40e496bef61db012f150758bf
     Pseudo is Projector augmented-wave + core cor, Zval =  4.0
     Generated using "atomic" code by A. Dal Corso  v.5.0.2 svn rev. 9415
     Shape of augmentation charge: PSQ
     Using radial grid of 1141 points,  4 beta functions with: 
                l(1) =   0
                l(2) =   0
                l(3) =   1
                l(4) =   1
     Q(r) pseudized with 0 coefficients 


     atomic species   valence    mass     pseudopotential
        Si             4.00    28.05500     Si( 1.00)

     48 Sym. Ops., with inversion, found (24 have fractional translation)



   Cartesian axes

     site n.     atom                  positions (alat units)
         1           Si  tau(   1) = (   0.0000000   0.0000000   0.0000000  )
         2           Si  tau(   2) = (  -0.2500000   0.2500000   0.2500000  )

     number of k points=    35
                       cart. coord. in units 2pi/alat
        k(    1) = (   0.0000000   0.0000000   0.0000000), wk =   0.0027435
        k(    2) = (  -0.1111111   0.1111111  -0.1111111), wk =   0.0219479
        k(    3) = (  -0.2222222   0.2222222  -0.2222222), wk =   0.0219479
        k(    4) = (  -0.3333333   0.3333333  -0.3333333), wk =   0.0219479
        k(    5) = (  -0.4444444   0.4444444  -0.4444444), wk =   0.0219479
        k(    6) = (   0.0000000   0.2222222   0.0000000), wk =   0.0164609
        k(    7) = (  -0.1111111   0.3333333  -0.1111111), wk =   0.0658436
        k(    8) = (  -0.2222222   0.4444444  -0.2222222), wk =   0.0658436
        k(    9) = (  -0.3333333   0.5555556  -0.3333333), wk =   0.0658436
        k(   10) = (   0.5555556  -0.3333333   0.5555556), wk =   0.0658436
        k(   11) = (   0.4444444  -0.2222222   0.4444444), wk =   0.0658436
        k(   12) = (   0.3333333  -0.1111111   0.3333333), wk =   0.0658436
        k(   13) = (   0.2222222  -0.0000000   0.2222222), wk =   0.0329218
        k(   14) = (   0.0000000   0.4444444   0.0000000), wk =   0.0164609
        k(   15) = (  -0.1111111   0.5555556  -0.1111111), wk =   0.0658436
        k(   16) = (  -0.2222222   0.6666667  -0.2222222), wk =   0.0658436
        k(   17) = (   0.6666667  -0.2222222   0.6666667), wk =   0.0658436
        k(   18) = (   0.5555556  -0.1111111   0.5555556), wk =   0.0658436
        k(   19) = (   0.4444444   0.0000000   0.4444444), wk =   0.0329218
        k(   20) = (   0.0000000   0.6666667   0.0000000), wk =   0.0164609
        k(   21) = (  -0.1111111   0.7777778  -0.1111111), wk =   0.0658436
        k(   22) = (   0.7777778  -0.1111111   0.7777778), wk =   0.0658436
        k(   23) = (   0.6666667  -0.0000000   0.6666667), wk =   0.0329218
        k(   24) = (   0.0000000   0.8888889   0.0000000), wk =   0.0164609
        k(   25) = (   0.8888889   0.0000000   0.8888889), wk =   0.0329218
        k(   26) = (  -0.2222222   0.4444444   0.0000000), wk =   0.0658436
        k(   27) = (  -0.3333333   0.5555556  -0.1111111), wk =   0.1316872
        k(   28) = (   0.5555556  -0.3333333   0.7777778), wk =   0.1316872
        k(   29) = (  -0.2222222   0.6666667   0.0000000), wk =   0.0658436
        k(   30) = (   0.6666667  -0.2222222   0.8888889), wk =   0.1316872
        k(   31) = (   0.5555556  -0.1111111   0.7777778), wk =   0.1316872
        k(   32) = (   0.4444444   0.0000000   0.6666667), wk =   0.0658436
        k(   33) = (   0.7777778  -0.1111111   1.0000000), wk =   0.0658436
        k(   34) = (   0.6666667  -0.0000000   0.8888889), wk =   0.0658436
        k(   35) = (   0.5555556  -0.1111111   1.0000000), wk =   0.0658436

     Dense  grid:    12939 G-vectors     FFT dimensions: (  36,  36,  36)

     Largest allocated arrays     est. size (Mb)     dimensions
        Kohn-Sham Wavefunctions         0.10 Mb     (    1639,    4)
        NL pseudopotentials             0.40 Mb     (    1639,   16)
        Each V/rho on FFT grid          0.71 Mb     (   46656)
        Each G-vector array             0.10 Mb     (   12939)
        G-vector shells                 0.00 Mb     (     180)
     Largest temporary arrays     est. size (Mb)     dimensions
        Auxiliary wavefunctions         0.40 Mb     (    1639,   16)
        Each subspace H/S matrix        0.00 Mb     (      16,   16)
        Each <psi_i|beta_j> matrix      0.00 Mb     (      16,    4)
        Arrays for rho mixing           5.70 Mb     (   46656,    8)

     Initial potential from superposition of free atoms

     starting charge    7.99888, renormalised to    8.00000
     Starting wfc are    8 randomized atomic wfcs
     Checking if some PAW data can be deallocated... 

     total cpu time spent up to now is        0.9 secs

     per-process dynamical memory:    14.2 Mb

     Self-consistent Calculation

     iteration #  1     ecut=    50.00 Ry     beta=0.70
     Davidson diagonalization with overlap
     ethr =  1.00E-02,  avg # of iterations =  2.0

     Threshold (ethr) on eigenvalues was too large:
     Diagonalizing with lowered threshold

     Davidson diagonalization with overlap
     ethr =  7.19E-04,  avg # of iterations =  1.0

     total cpu time spent up to now is        2.2 secs

     total energy              =     -93.45140427 Ry
     Harris-Foulkes estimate   =     -93.46520645 Ry
     estimated scf accuracy    <       0.05698907 Ry

     iteration #  2     ecut=    50.00 Ry     beta=0.70
     Davidson diagonalization with overlap
     ethr =  7.12E-04,  avg # of iterations =  1.0

     total cpu time spent up to now is        2.9 secs

     total energy              =     -93.45353120 Ry
     Harris-Foulkes estimate   =     -93.45366392 Ry
     estimated scf accuracy    <       0.00243887 Ry

     iteration #  3     ecut=    50.00 Ry     beta=0.70
     Davidson diagonalization with overlap
     ethr =  3.05E-05,  avg # of iterations =  2.1

     total cpu time spent up to now is        3.6 secs

     total energy              =     -93.45382451 Ry
     Harris-Foulkes estimate   =     -93.45384335 Ry
     estimated scf accuracy    <       0.00005419 Ry

     iteration #  4     ecut=    50.00 Ry     beta=0.70
     Davidson diagonalization with overlap
     ethr =  6.77E-07,  avg # of iterations =  3.0

     total cpu time spent up to now is        4.6 secs

     total energy              =     -93.45385192 Ry
     Harris-Foulkes estimate   =     -93.45385298 Ry
     estimated scf accuracy    <       0.00000280 Ry

     iteration #  5     ecut=    50.00 Ry     beta=0.70
     Davidson diagonalization with overlap
     ethr =  3.50E-08,  avg # of iterations =  2.6

     total cpu time spent up to now is        5.5 secs

     End of self-consistent calculation

          k = 0.0000 0.0000 0.0000 (  1639 PWs)   bands (ev):

    -5.7534   6.2184   6.2184   6.2184

          k =-0.1111 0.1111-0.1111 (  1606 PWs)   bands (ev):

    -5.5917   4.8729   5.9804   5.9804

          k =-0.2222 0.2222-0.2222 (  1606 PWs)   bands (ev):

    -5.1164   2.7944   5.5556   5.5556

          k =-0.3333 0.3333-0.3333 (  1609 PWs)   bands (ev):

    -4.3745   0.8801   5.2169   5.2169

          k =-0.4444 0.4444-0.4444 (  1610 PWs)   bands (ev):

    -3.5816  -0.5176   5.0406   5.0406

          k = 0.0000 0.2222 0.0000 (  1599 PWs)   bands (ev):

    -5.5373   5.1069   5.5398   5.5398

          k =-0.1111 0.3333-0.1111 (  1600 PWs)   bands (ev):

    -5.1645   3.4188   5.0654   5.2043

          k =-0.2222 0.4444-0.2222 (  1611 PWs)   bands (ev):

    -4.5026   1.5087   4.6981   4.7598

          k =-0.3333 0.5556-0.3333 (  1613 PWs)   bands (ev):

    -3.6746  -0.0841   4.2615   4.6775

          k = 0.5556-0.3333 0.5556 (  1614 PWs)   bands (ev):

    -3.2948  -0.6577   4.0019   4.8178

          k = 0.4444-0.2222 0.4444 (  1612 PWs)   bands (ev):

    -3.9537   0.3931   3.9674   5.1490

          k = 0.3333-0.1111 0.3333 (  1607 PWs)   bands (ev):

    -4.7540   2.1253   4.1995   5.5997

          k = 0.2222-0.0000 0.2222 (  1600 PWs)   bands (ev):

    -5.3246   3.8938   4.8507   5.9942

          k = 0.0000 0.4444 0.0000 (  1615 PWs)   bands (ev):

    -4.8950   3.1978   4.5431   4.5431

          k =-0.1111 0.5556-0.1111 (  1614 PWs)   bands (ev):

    -4.3247   1.8622   3.9170   4.2003

          k =-0.2222 0.6667-0.2222 (  1616 PWs)   bands (ev):

    -3.5240   0.3873   3.1752   4.1022

          k = 0.6667-0.2222 0.6667 (  1601 PWs)   bands (ev):

    -2.8672  -0.5573   2.6544   4.2577

          k = 0.5556-0.1111 0.5556 (  1610 PWs)   bands (ev):

    -3.2807   0.0225   2.4722   4.6396

          k = 0.4444 0.0000 0.4444 (  1614 PWs)   bands (ev):

    -4.1052   1.2730   2.8571   5.1630

          k = 0.0000 0.6667 0.0000 (  1624 PWs)   bands (ev):

    -3.8464   1.2049   3.7983   3.7983

          k =-0.1111 0.7778-0.1111 (  1621 PWs)   bands (ev):

    -3.1063   0.1529   3.0712   3.6409

          k = 0.7778-0.1111 0.7778 (  1619 PWs)   bands (ev):

    -2.3101  -0.7466   2.1649   3.7484

          k = 0.6667-0.0000 0.6667 (  1612 PWs)   bands (ev):

    -2.4844  -0.5563   1.8012   4.1045

          k = 0.0000 0.8889 0.0000 (  1608 PWs)   bands (ev):

    -2.4301  -0.7127   3.4120   3.4120

          k = 0.8889 0.0000 0.8889 (  1612 PWs)   bands (ev):

    -1.6561  -1.4866   2.7951   3.4496

          k =-0.2222 0.4444 0.0000 (  1599 PWs)   bands (ev):

    -4.6940   2.4267   3.8466   5.0514

          k =-0.3333 0.5556-0.1111 (  1611 PWs)   bands (ev):

    -3.9573   0.9344   3.2393   4.6127

          k = 0.5556-0.3333 0.7778 (  1604 PWs)   bands (ev):

    -3.1590  -0.3572   3.0470   4.2885

          k =-0.2222 0.6667 0.0000 (  1617 PWs)   bands (ev):

    -3.6718   0.9008   3.1338   3.8255

          k = 0.6667-0.2222 0.8889 (  1621 PWs)   bands (ev):

    -2.8433  -0.1849   2.4684   3.5187

          k = 0.5556-0.1111 0.7778 (  1614 PWs)   bands (ev):

    -2.4768  -0.6119   2.0811   3.6315

          k = 0.4444 0.0000 0.6667 (  1614 PWs)   bands (ev):

    -3.1796   0.1914   2.2284   4.0695

          k = 0.7778-0.1111 1.0000 (  1627 PWs)   bands (ev):

    -2.3134  -0.7285   2.8458   3.0556

          k = 0.6667-0.0000 0.8889 (  1618 PWs)   bands (ev):

    -1.7893  -1.1904   2.1202   3.1441

          k = 0.5556-0.1111 1.0000 (  1612 PWs)   bands (ev):

    -2.0359  -0.8747   2.1592   2.8025

     highest occupied level (ev):     6.2184

!    total energy              =     -93.45385279 Ry
     Harris-Foulkes estimate   =     -93.45385286 Ry
     estimated scf accuracy    <       0.00000008 Ry

     total all-electron energy =     -1160.145589 Ry

     The total energy is the sum of the following terms:

     one-electron contribution =       5.74083643 Ry
     hartree contribution      =       1.09728546 Ry
     xc contribution           =     -12.25645402 Ry
     ewald contribution        =     -16.80092961 Ry
     one-center paw contrib.   =     -71.23459103 Ry

     convergence has been achieved in   5 iterations

     Forces acting on atoms (Ry/au):

     atom    1 type  1   force =    -0.00000000    0.00000000   -0.00000000
     atom    2 type  1   force =     0.00000000    0.00000000    0.00000000

     Total force =     0.000000     Total SCF correction =     0.000000


     entering subroutine stress ...

          total   stress  (Ry/bohr**3)                   (kbar)     P=   18.87
   0.00012830  -0.00000000   0.00000000         18.87     -0.00      0.00
   0.00000000   0.00012830  -0.00000000          0.00     18.87     -0.00
   0.00000000  -0.00000000   0.00012830          0.00     -0.00     18.87


     Writing output data file pwscf.save
 
     init_run     :      0.72s CPU      0.73s WALL (       1 calls)
     electrons    :      4.64s CPU      4.67s WALL (       1 calls)
     forces       :      0.08s CPU      0.08s WALL (       1 calls)
     stress       :      0.25s CPU      0.25s WALL (       1 calls)

     Called by init_run:
     wfcinit      :      0.38s CPU      0.39s WALL (       1 calls)
     potinit      :      0.12s CPU      0.12s WALL (       1 calls)

     Called by electrons:
     c_bands      :      3.29s CPU      3.31s WALL (       6 calls)
     sum_band     :      0.70s CPU      0.71s WALL (       6 calls)
     v_of_rho     :      0.17s CPU      0.17s WALL (       6 calls)
     newd         :      0.05s CPU      0.05s WALL (       6 calls)
     mix_rho      :      0.01s CPU      0.01s WALL (       6 calls)

     Called by c_bands:
     init_us_2    :      0.13s CPU      0.14s WALL (     525 calls)
     cegterg      :      3.05s CPU      3.07s WALL (     210 calls)

     Called by *egterg:
     h_psi        :      3.20s CPU      3.22s WALL (     655 calls)
     s_psi        :      0.04s CPU      0.04s WALL (     655 calls)
     g_psi        :      0.02s CPU      0.03s WALL (     410 calls)
     cdiaghg      :      0.02s CPU      0.03s WALL (     585 calls)

     Called by h_psi:
     add_vuspsi   :      0.03s CPU      0.04s WALL (     655 calls)

     General routines
     calbec       :      0.07s CPU      0.07s WALL (     935 calls)
     fft          :      0.09s CPU      0.09s WALL (     105 calls)
     fftw         :      3.34s CPU      3.35s WALL (    5838 calls)
     davcio       :      0.00s CPU      0.00s WALL (      35 calls)
 
     Parallel routines
     fft_scatter  :      0.20s CPU      0.21s WALL (    5943 calls)

     PAW routines
     PAW_pot      :      0.54s CPU      0.54s WALL (       6 calls)
     PAW_symme    :      0.00s CPU      0.00s WALL (      12 calls)
 
     PWSCF        :     5.89s CPU         6.02s WALL

 
   This run was terminated on:  10:27:16   1May2015            

=------------------------------------------------------------------------------=
   JOB DONE.
=------------------------------------------------------------------------------=
