
     Program PWSCF v.5.1 starts on  1May2015 at 10:27:58 

     This program is part of the open-source Quantum ESPRESSO suite
     for quantum simulation of materials; please cite
         "P. Giannozzi et al., J. Phys.:Condens. Matter 21 395502 (2009);
          URL http://www.quantum-espresso.org", 
     in publications or presentations arising from this work. More details at
     http://www.quantum-espresso.org/quote

     Parallel version (MPI), running on     1 processors
     Waiting for input...
     Reading input from standard input
Warning: card &IONS ignored
Warning: card / ignored
Warning: card &CELL ignored
Warning: card / ignored

     Current dimensions of program PWSCF are:
     Max number of different atomic species (ntypx) = 10
     Max number of k-points (npk) =  40000
     Max angular momentum in pseudopotentials (lmaxx) =  3
               file Si.pbe-n-kjpaw_psl.0.1.UPF: wavefunction(s)  3S renormalized

     Subspace diagonalization in iterative solution of the eigenvalue problem:
     a serial algorithm will be used

 
     G-vector sticks info
     --------------------
     sticks:   dense  smooth     PW     G-vecs:    dense   smooth      PW
     Sum         745     745    223                13323    13323    2229
 


     bravais-lattice index     =            2
     lattice parameter (alat)  =      10.3600  a.u.
     unit-cell volume          =     277.9837 (a.u.)^3
     number of atoms/cell      =            2
     number of atomic types    =            1
     number of electrons       =         8.00
     number of Kohn-Sham states=            4
     kinetic-energy cutoff     =      50.0000  Ry
     charge density cutoff     =     200.0000  Ry
     convergence threshold     =      1.0E-06
     mixing beta               =       0.7000
     number of iterations used =            8  plain     mixing
     Exchange-correlation      =  SLA  PW   PBX  PBC ( 1  4  3  4 0)

     celldm(1)=  10.360000  celldm(2)=   0.000000  celldm(3)=   0.000000
     celldm(4)=   0.000000  celldm(5)=   0.000000  celldm(6)=   0.000000

     crystal axes: (cart. coord. in units of alat)
               a(1) = (  -0.500000   0.000000   0.500000 )  
               a(2) = (   0.000000   0.500000   0.500000 )  
               a(3) = (  -0.500000   0.500000   0.000000 )  

     reciprocal axes: (cart. coord. in units 2 pi/alat)
               b(1) = ( -1.000000 -1.000000  1.000000 )  
               b(2) = (  1.000000  1.000000  1.000000 )  
               b(3) = ( -1.000000  1.000000 -1.000000 )  


     PseudoPot. # 1 for Si read from file:
     ./Si.pbe-n-kjpaw_psl.0.1.UPF
     MD5 check sum: b9d333a40e496bef61db012f150758bf
     Pseudo is Projector augmented-wave + core cor, Zval =  4.0
     Generated using "atomic" code by A. Dal Corso  v.5.0.2 svn rev. 9415
     Shape of augmentation charge: PSQ
     Using radial grid of 1141 points,  4 beta functions with: 
                l(1) =   0
                l(2) =   0
                l(3) =   1
                l(4) =   1
     Q(r) pseudized with 0 coefficients 


     atomic species   valence    mass     pseudopotential
        Si             4.00    28.05500     Si( 1.00)

     48 Sym. Ops., with inversion, found (24 have fractional translation)



   Cartesian axes

     site n.     atom                  positions (alat units)
         1           Si  tau(   1) = (   0.0000000   0.0000000   0.0000000  )
         2           Si  tau(   2) = (  -0.2500000   0.2500000   0.2500000  )

     number of k points=    35
                       cart. coord. in units 2pi/alat
        k(    1) = (   0.0000000   0.0000000   0.0000000), wk =   0.0027435
        k(    2) = (  -0.1111111   0.1111111  -0.1111111), wk =   0.0219479
        k(    3) = (  -0.2222222   0.2222222  -0.2222222), wk =   0.0219479
        k(    4) = (  -0.3333333   0.3333333  -0.3333333), wk =   0.0219479
        k(    5) = (  -0.4444444   0.4444444  -0.4444444), wk =   0.0219479
        k(    6) = (   0.0000000   0.2222222   0.0000000), wk =   0.0164609
        k(    7) = (  -0.1111111   0.3333333  -0.1111111), wk =   0.0658436
        k(    8) = (  -0.2222222   0.4444444  -0.2222222), wk =   0.0658436
        k(    9) = (  -0.3333333   0.5555556  -0.3333333), wk =   0.0658436
        k(   10) = (   0.5555556  -0.3333333   0.5555556), wk =   0.0658436
        k(   11) = (   0.4444444  -0.2222222   0.4444444), wk =   0.0658436
        k(   12) = (   0.3333333  -0.1111111   0.3333333), wk =   0.0658436
        k(   13) = (   0.2222222  -0.0000000   0.2222222), wk =   0.0329218
        k(   14) = (   0.0000000   0.4444444   0.0000000), wk =   0.0164609
        k(   15) = (  -0.1111111   0.5555556  -0.1111111), wk =   0.0658436
        k(   16) = (  -0.2222222   0.6666667  -0.2222222), wk =   0.0658436
        k(   17) = (   0.6666667  -0.2222222   0.6666667), wk =   0.0658436
        k(   18) = (   0.5555556  -0.1111111   0.5555556), wk =   0.0658436
        k(   19) = (   0.4444444   0.0000000   0.4444444), wk =   0.0329218
        k(   20) = (   0.0000000   0.6666667   0.0000000), wk =   0.0164609
        k(   21) = (  -0.1111111   0.7777778  -0.1111111), wk =   0.0658436
        k(   22) = (   0.7777778  -0.1111111   0.7777778), wk =   0.0658436
        k(   23) = (   0.6666667  -0.0000000   0.6666667), wk =   0.0329218
        k(   24) = (   0.0000000   0.8888889   0.0000000), wk =   0.0164609
        k(   25) = (   0.8888889   0.0000000   0.8888889), wk =   0.0329218
        k(   26) = (  -0.2222222   0.4444444   0.0000000), wk =   0.0658436
        k(   27) = (  -0.3333333   0.5555556  -0.1111111), wk =   0.1316872
        k(   28) = (   0.5555556  -0.3333333   0.7777778), wk =   0.1316872
        k(   29) = (  -0.2222222   0.6666667   0.0000000), wk =   0.0658436
        k(   30) = (   0.6666667  -0.2222222   0.8888889), wk =   0.1316872
        k(   31) = (   0.5555556  -0.1111111   0.7777778), wk =   0.1316872
        k(   32) = (   0.4444444   0.0000000   0.6666667), wk =   0.0658436
        k(   33) = (   0.7777778  -0.1111111   1.0000000), wk =   0.0658436
        k(   34) = (   0.6666667  -0.0000000   0.8888889), wk =   0.0658436
        k(   35) = (   0.5555556  -0.1111111   1.0000000), wk =   0.0658436

     Dense  grid:    13323 G-vectors     FFT dimensions: (  36,  36,  36)

     Largest allocated arrays     est. size (Mb)     dimensions
        Kohn-Sham Wavefunctions         0.10 Mb     (    1673,    4)
        NL pseudopotentials             0.41 Mb     (    1673,   16)
        Each V/rho on FFT grid          0.71 Mb     (   46656)
        Each G-vector array             0.10 Mb     (   13323)
        G-vector shells                 0.00 Mb     (     182)
     Largest temporary arrays     est. size (Mb)     dimensions
        Auxiliary wavefunctions         0.41 Mb     (    1673,   16)
        Each subspace H/S matrix        0.00 Mb     (      16,   16)
        Each <psi_i|beta_j> matrix      0.00 Mb     (      16,    4)
        Arrays for rho mixing           5.70 Mb     (   46656,    8)

     Check: negative/imaginary core charge=   -0.000001    0.000000

     Initial potential from superposition of free atoms

     starting charge    7.99888, renormalised to    8.00000
     Starting wfc are    8 randomized atomic wfcs
     Checking if some PAW data can be deallocated... 

     total cpu time spent up to now is        0.9 secs

     per-process dynamical memory:    14.5 Mb

     Self-consistent Calculation

     iteration #  1     ecut=    50.00 Ry     beta=0.70
     Davidson diagonalization with overlap
     ethr =  1.00E-02,  avg # of iterations =  2.0

     Threshold (ethr) on eigenvalues was too large:
     Diagonalizing with lowered threshold

     Davidson diagonalization with overlap
     ethr =  6.86E-04,  avg # of iterations =  1.0

     total cpu time spent up to now is        2.2 secs

     total energy              =     -93.45198731 Ry
     Harris-Foulkes estimate   =     -93.46452366 Ry
     estimated scf accuracy    <       0.05429141 Ry

     iteration #  2     ecut=    50.00 Ry     beta=0.70
     Davidson diagonalization with overlap
     ethr =  6.79E-04,  avg # of iterations =  1.0

     total cpu time spent up to now is        2.9 secs

     total energy              =     -93.45385633 Ry
     Harris-Foulkes estimate   =     -93.45399811 Ry
     estimated scf accuracy    <       0.00245055 Ry

     iteration #  3     ecut=    50.00 Ry     beta=0.70
     Davidson diagonalization with overlap
     ethr =  3.06E-05,  avg # of iterations =  1.9

     total cpu time spent up to now is        3.6 secs

     total energy              =     -93.45411967 Ry
     Harris-Foulkes estimate   =     -93.45413660 Ry
     estimated scf accuracy    <       0.00004927 Ry

     iteration #  4     ecut=    50.00 Ry     beta=0.70
     Davidson diagonalization with overlap
     ethr =  6.16E-07,  avg # of iterations =  3.0

     total cpu time spent up to now is        4.5 secs

     total energy              =     -93.45414623 Ry
     Harris-Foulkes estimate   =     -93.45414698 Ry
     estimated scf accuracy    <       0.00000198 Ry

     iteration #  5     ecut=    50.00 Ry     beta=0.70
     Davidson diagonalization with overlap
     ethr =  2.47E-08,  avg # of iterations =  2.8

     total cpu time spent up to now is        5.4 secs

     End of self-consistent calculation

          k = 0.0000 0.0000 0.0000 (  1639 PWs)   bands (ev):

    -5.8562   5.9172   5.9172   5.9172

          k =-0.1111 0.1111-0.1111 (  1666 PWs)   bands (ev):

    -5.6985   4.5761   5.6863   5.6863

          k =-0.2222 0.2222-0.2222 (  1657 PWs)   bands (ev):

    -5.2355   2.5345   5.2712   5.2712

          k =-0.3333 0.3333-0.3333 (  1634 PWs)   bands (ev):

    -4.5145   0.6638   4.9385   4.9385

          k =-0.4444 0.4444-0.4444 (  1673 PWs)   bands (ev):

    -3.7498  -0.6933   4.7648   4.7648

          k = 0.0000 0.2222 0.0000 (  1667 PWs)   bands (ev):

    -5.6455   4.7777   5.2613   5.2613

          k =-0.1111 0.3333-0.1111 (  1665 PWs)   bands (ev):

    -5.2822   3.1323   4.7988   4.9194

          k =-0.2222 0.4444-0.2222 (  1665 PWs)   bands (ev):

    -4.6381   1.2689   4.4219   4.4987

          k =-0.3333 0.5556-0.3333 (  1660 PWs)   bands (ev):

    -3.8366  -0.2798   3.9955   4.4157

          k = 0.5556-0.3333 0.5556 (  1661 PWs)   bands (ev):

    -3.4729  -0.8328   3.7446   4.5501

          k = 0.4444-0.2222 0.4444 (  1650 PWs)   bands (ev):

    -4.1060   0.1833   3.7159   4.8713

          k = 0.3333-0.1111 0.3333 (  1651 PWs)   bands (ev):

    -4.8826   1.8695   3.9503   5.3100

          k = 0.2222-0.0000 0.2222 (  1663 PWs)   bands (ev):

    -5.4382   3.5973   4.5941   5.6950

          k = 0.0000 0.4444 0.0000 (  1656 PWs)   bands (ev):

    -5.0193   2.8824   4.2908   4.2908

          k =-0.1111 0.5556-0.1111 (  1660 PWs)   bands (ev):

    -4.4638   1.5823   3.6767   3.9555

          k =-0.2222 0.6667-0.2222 (  1654 PWs)   bands (ev):

    -3.6865   0.1528   2.9504   3.8582

          k = 0.6667-0.2222 0.6667 (  1659 PWs)   bands (ev):

    -3.0551  -0.7566   2.4430   4.0081

          k = 0.5556-0.1111 0.5556 (  1662 PWs)   bands (ev):

    -3.4528  -0.1985   2.2718   4.3786

          k = 0.4444 0.0000 0.4444 (  1658 PWs)   bands (ev):

    -4.2515   1.0147   2.6554   4.8863

          k = 0.0000 0.6667 0.0000 (  1668 PWs)   bands (ev):

    -3.9972   0.9279   3.5636   3.5636

          k =-0.1111 0.7778-0.1111 (  1663 PWs)   bands (ev):

    -3.2770  -0.0996   2.8627   3.4093

          k = 0.7778-0.1111 0.7778 (  1660 PWs)   bands (ev):

    -2.5078  -0.9731   1.9884   3.5132

          k = 0.6667-0.0000 0.6667 (  1668 PWs)   bands (ev):

    -2.6809  -0.7833   1.6369   3.8593

          k = 0.0000 0.8889 0.0000 (  1656 PWs)   bands (ev):

    -2.6171  -0.9436   3.1860   3.1860

          k = 0.8889 0.0000 0.8889 (  1668 PWs)   bands (ev):

    -1.8669  -1.6970   2.5955   3.2224

          k =-0.2222 0.4444 0.0000 (  1661 PWs)   bands (ev):

    -4.8239   2.1435   3.6167   4.7765

          k =-0.3333 0.5556-0.1111 (  1654 PWs)   bands (ev):

    -4.1078   0.6918   3.0151   4.3538

          k = 0.5556-0.3333 0.7778 (  1662 PWs)   bands (ev):

    -3.3371  -0.5567   2.8184   4.0420

          k =-0.2222 0.6667 0.0000 (  1661 PWs)   bands (ev):

    -3.8283   0.6340   2.9226   3.5942

          k = 0.6667-0.2222 0.8889 (  1662 PWs)   bands (ev):

    -3.0252  -0.4222   2.2754   3.2991

          k = 0.5556-0.1111 0.7778 (  1653 PWs)   bands (ev):

    -2.6742  -0.8320   1.9006   3.4075

          k = 0.4444 0.0000 0.6667 (  1659 PWs)   bands (ev):

    -3.3527  -0.0530   2.0467   3.8306

          k = 0.7778-0.1111 1.0000 (  1663 PWs)   bands (ev):

    -2.5060  -0.9620   2.6436   2.8494

          k = 0.6667-0.0000 0.8889 (  1654 PWs)   bands (ev):

    -2.0031  -1.4098   1.9481   2.9345

          k = 0.5556-0.1111 1.0000 (  1653 PWs)   bands (ev):

    -2.2417  -1.1064   1.9843   2.6093

     highest occupied level (ev):     5.9172

!    total energy              =     -93.45414696 Ry
     Harris-Foulkes estimate   =     -93.45414703 Ry
     estimated scf accuracy    <       0.00000007 Ry

     total all-electron energy =     -1160.145883 Ry

     The total energy is the sum of the following terms:

     one-electron contribution =       5.51289192 Ry
     hartree contribution      =       1.12312351 Ry
     xc contribution           =     -12.22198279 Ry
     ewald contribution        =     -16.63875847 Ry
     one-center paw contrib.   =     -71.22942114 Ry

     convergence has been achieved in   5 iterations

     Forces acting on atoms (Ry/au):

     atom    1 type  1   force =    -0.00000000    0.00000000   -0.00000000
     atom    2 type  1   force =     0.00000000   -0.00000000    0.00000000

     Total force =     0.000000     Total SCF correction =     0.000000


     entering subroutine stress ...

          total   stress  (Ry/bohr**3)                   (kbar)     P=   -7.71
  -0.00005243   0.00000000   0.00000000         -7.71      0.00      0.00
   0.00000000  -0.00005243  -0.00000000          0.00     -7.71     -0.00
   0.00000000  -0.00000000  -0.00005243          0.00     -0.00     -7.71


     Writing output data file pwscf.save
 
     init_run     :      0.73s CPU      0.74s WALL (       1 calls)
     electrons    :      4.53s CPU      4.56s WALL (       1 calls)
     forces       :      0.07s CPU      0.08s WALL (       1 calls)
     stress       :      0.25s CPU      0.25s WALL (       1 calls)

     Called by init_run:
     wfcinit      :      0.39s CPU      0.39s WALL (       1 calls)
     potinit      :      0.12s CPU      0.12s WALL (       1 calls)

     Called by electrons:
     c_bands      :      3.20s CPU      3.22s WALL (       6 calls)
     sum_band     :      0.70s CPU      0.70s WALL (       6 calls)
     v_of_rho     :      0.16s CPU      0.17s WALL (       6 calls)
     newd         :      0.05s CPU      0.05s WALL (       6 calls)
     mix_rho      :      0.01s CPU      0.01s WALL (       6 calls)

     Called by c_bands:
     init_us_2    :      0.15s CPU      0.15s WALL (     525 calls)
     cegterg      :      2.97s CPU      2.98s WALL (     210 calls)

     Called by *egterg:
     h_psi        :      3.12s CPU      3.14s WALL (     656 calls)
     s_psi        :      0.03s CPU      0.03s WALL (     656 calls)
     g_psi        :      0.03s CPU      0.03s WALL (     411 calls)
     cdiaghg      :      0.03s CPU      0.02s WALL (     586 calls)

     Called by h_psi:
     add_vuspsi   :      0.04s CPU      0.03s WALL (     656 calls)

     General routines
     calbec       :      0.06s CPU      0.07s WALL (     936 calls)
     fft          :      0.09s CPU      0.09s WALL (     105 calls)
     fftw         :      3.25s CPU      3.26s WALL (    5854 calls)
     davcio       :      0.00s CPU      0.00s WALL (      35 calls)
 
     Parallel routines
     fft_scatter  :      0.21s CPU      0.20s WALL (    5959 calls)

     PAW routines
     PAW_pot      :      0.53s CPU      0.53s WALL (       6 calls)
     PAW_symme    :      0.00s CPU      0.00s WALL (      12 calls)
 
     PWSCF        :     5.78s CPU         5.89s WALL

 
   This run was terminated on:  10:28: 4   1May2015            

=------------------------------------------------------------------------------=
   JOB DONE.
=------------------------------------------------------------------------------=
