
     Program PWSCF v.5.1 starts on  1May2015 at 10:26:37 

     This program is part of the open-source Quantum ESPRESSO suite
     for quantum simulation of materials; please cite
         "P. Giannozzi et al., J. Phys.:Condens. Matter 21 395502 (2009);
          URL http://www.quantum-espresso.org", 
     in publications or presentations arising from this work. More details at
     http://www.quantum-espresso.org/quote

     Parallel version (MPI), running on     1 processors
     Waiting for input...
     Reading input from standard input
Warning: card &IONS ignored
Warning: card / ignored
Warning: card &CELL ignored
Warning: card / ignored

     Current dimensions of program PWSCF are:
     Max number of different atomic species (ntypx) = 10
     Max number of k-points (npk) =  40000
     Max angular momentum in pseudopotentials (lmaxx) =  3
               file Si.pbe-n-kjpaw_psl.0.1.UPF: wavefunction(s)  3S renormalized

     Subspace diagonalization in iterative solution of the eigenvalue problem:
     a serial algorithm will be used

 
     G-vector sticks info
     --------------------
     sticks:   dense  smooth     PW     G-vecs:    dense   smooth      PW
     Sum         625     625    199                10177    10177    1807
 


     bravais-lattice index     =            2
     lattice parameter (alat)  =       9.5000  a.u.
     unit-cell volume          =     214.3438 (a.u.)^3
     number of atoms/cell      =            2
     number of atomic types    =            1
     number of electrons       =         8.00
     number of Kohn-Sham states=            4
     kinetic-energy cutoff     =      50.0000  Ry
     charge density cutoff     =     200.0000  Ry
     convergence threshold     =      1.0E-06
     mixing beta               =       0.7000
     number of iterations used =            8  plain     mixing
     Exchange-correlation      =  SLA  PW   PBX  PBC ( 1  4  3  4 0)

     celldm(1)=   9.500000  celldm(2)=   0.000000  celldm(3)=   0.000000
     celldm(4)=   0.000000  celldm(5)=   0.000000  celldm(6)=   0.000000

     crystal axes: (cart. coord. in units of alat)
               a(1) = (  -0.500000   0.000000   0.500000 )  
               a(2) = (   0.000000   0.500000   0.500000 )  
               a(3) = (  -0.500000   0.500000   0.000000 )  

     reciprocal axes: (cart. coord. in units 2 pi/alat)
               b(1) = ( -1.000000 -1.000000  1.000000 )  
               b(2) = (  1.000000  1.000000  1.000000 )  
               b(3) = ( -1.000000  1.000000 -1.000000 )  


     PseudoPot. # 1 for Si read from file:
     ./Si.pbe-n-kjpaw_psl.0.1.UPF
     MD5 check sum: b9d333a40e496bef61db012f150758bf
     Pseudo is Projector augmented-wave + core cor, Zval =  4.0
     Generated using "atomic" code by A. Dal Corso  v.5.0.2 svn rev. 9415
     Shape of augmentation charge: PSQ
     Using radial grid of 1141 points,  4 beta functions with: 
                l(1) =   0
                l(2) =   0
                l(3) =   1
                l(4) =   1
     Q(r) pseudized with 0 coefficients 


     atomic species   valence    mass     pseudopotential
        Si             4.00    28.05500     Si( 1.00)

     48 Sym. Ops., with inversion, found (24 have fractional translation)



   Cartesian axes

     site n.     atom                  positions (alat units)
         1           Si  tau(   1) = (   0.0000000   0.0000000   0.0000000  )
         2           Si  tau(   2) = (  -0.2500000   0.2500000   0.2500000  )

     number of k points=    35
                       cart. coord. in units 2pi/alat
        k(    1) = (   0.0000000   0.0000000   0.0000000), wk =   0.0027435
        k(    2) = (  -0.1111111   0.1111111  -0.1111111), wk =   0.0219479
        k(    3) = (  -0.2222222   0.2222222  -0.2222222), wk =   0.0219479
        k(    4) = (  -0.3333333   0.3333333  -0.3333333), wk =   0.0219479
        k(    5) = (  -0.4444444   0.4444444  -0.4444444), wk =   0.0219479
        k(    6) = (   0.0000000   0.2222222   0.0000000), wk =   0.0164609
        k(    7) = (  -0.1111111   0.3333333  -0.1111111), wk =   0.0658436
        k(    8) = (  -0.2222222   0.4444444  -0.2222222), wk =   0.0658436
        k(    9) = (  -0.3333333   0.5555556  -0.3333333), wk =   0.0658436
        k(   10) = (   0.5555556  -0.3333333   0.5555556), wk =   0.0658436
        k(   11) = (   0.4444444  -0.2222222   0.4444444), wk =   0.0658436
        k(   12) = (   0.3333333  -0.1111111   0.3333333), wk =   0.0658436
        k(   13) = (   0.2222222  -0.0000000   0.2222222), wk =   0.0329218
        k(   14) = (   0.0000000   0.4444444   0.0000000), wk =   0.0164609
        k(   15) = (  -0.1111111   0.5555556  -0.1111111), wk =   0.0658436
        k(   16) = (  -0.2222222   0.6666667  -0.2222222), wk =   0.0658436
        k(   17) = (   0.6666667  -0.2222222   0.6666667), wk =   0.0658436
        k(   18) = (   0.5555556  -0.1111111   0.5555556), wk =   0.0658436
        k(   19) = (   0.4444444   0.0000000   0.4444444), wk =   0.0329218
        k(   20) = (   0.0000000   0.6666667   0.0000000), wk =   0.0164609
        k(   21) = (  -0.1111111   0.7777778  -0.1111111), wk =   0.0658436
        k(   22) = (   0.7777778  -0.1111111   0.7777778), wk =   0.0658436
        k(   23) = (   0.6666667  -0.0000000   0.6666667), wk =   0.0329218
        k(   24) = (   0.0000000   0.8888889   0.0000000), wk =   0.0164609
        k(   25) = (   0.8888889   0.0000000   0.8888889), wk =   0.0329218
        k(   26) = (  -0.2222222   0.4444444   0.0000000), wk =   0.0658436
        k(   27) = (  -0.3333333   0.5555556  -0.1111111), wk =   0.1316872
        k(   28) = (   0.5555556  -0.3333333   0.7777778), wk =   0.1316872
        k(   29) = (  -0.2222222   0.6666667   0.0000000), wk =   0.0658436
        k(   30) = (   0.6666667  -0.2222222   0.8888889), wk =   0.1316872
        k(   31) = (   0.5555556  -0.1111111   0.7777778), wk =   0.1316872
        k(   32) = (   0.4444444   0.0000000   0.6666667), wk =   0.0658436
        k(   33) = (   0.7777778  -0.1111111   1.0000000), wk =   0.0658436
        k(   34) = (   0.6666667  -0.0000000   0.8888889), wk =   0.0658436
        k(   35) = (   0.5555556  -0.1111111   1.0000000), wk =   0.0658436

     Dense  grid:    10177 G-vectors     FFT dimensions: (  32,  32,  32)

     Largest allocated arrays     est. size (Mb)     dimensions
        Kohn-Sham Wavefunctions         0.08 Mb     (    1299,    4)
        NL pseudopotentials             0.32 Mb     (    1299,   16)
        Each V/rho on FFT grid          0.50 Mb     (   32768)
        Each G-vector array             0.08 Mb     (   10177)
        G-vector shells                 0.00 Mb     (     154)
     Largest temporary arrays     est. size (Mb)     dimensions
        Auxiliary wavefunctions         0.32 Mb     (    1299,   16)
        Each subspace H/S matrix        0.00 Mb     (      16,   16)
        Each <psi_i|beta_j> matrix      0.00 Mb     (      16,    4)
        Arrays for rho mixing           4.00 Mb     (   32768,    8)

     Initial potential from superposition of free atoms

     starting charge    7.99888, renormalised to    8.00000
     Starting wfc are    8 randomized atomic wfcs
     Checking if some PAW data can be deallocated... 

     total cpu time spent up to now is        0.9 secs

     per-process dynamical memory:    11.5 Mb

     Self-consistent Calculation

     iteration #  1     ecut=    50.00 Ry     beta=0.70
     Davidson diagonalization with overlap
     ethr =  1.00E-02,  avg # of iterations =  2.0

     total cpu time spent up to now is        1.4 secs

     total energy              =     -93.38378219 Ry
     Harris-Foulkes estimate   =     -93.41078106 Ry
     estimated scf accuracy    <       0.08170353 Ry

     iteration #  2     ecut=    50.00 Ry     beta=0.70
     Davidson diagonalization with overlap
     ethr =  1.02E-03,  avg # of iterations =  1.3

     total cpu time spent up to now is        1.9 secs

     total energy              =     -93.39030814 Ry
     Harris-Foulkes estimate   =     -93.39025365 Ry
     estimated scf accuracy    <       0.00220792 Ry

     iteration #  3     ecut=    50.00 Ry     beta=0.70
     Davidson diagonalization with overlap
     ethr =  2.76E-05,  avg # of iterations =  2.3

     total cpu time spent up to now is        2.4 secs

     total energy              =     -93.39077683 Ry
     Harris-Foulkes estimate   =     -93.39079064 Ry
     estimated scf accuracy    <       0.00007691 Ry

     iteration #  4     ecut=    50.00 Ry     beta=0.70
     Davidson diagonalization with overlap
     ethr =  9.61E-07,  avg # of iterations =  2.7

     total cpu time spent up to now is        3.0 secs

     total energy              =     -93.39080563 Ry
     Harris-Foulkes estimate   =     -93.39080684 Ry
     estimated scf accuracy    <       0.00000374 Ry

     iteration #  5     ecut=    50.00 Ry     beta=0.70
     Davidson diagonalization with overlap
     ethr =  4.67E-08,  avg # of iterations =  2.6

     total cpu time spent up to now is        3.5 secs

     End of self-consistent calculation

          k = 0.0000 0.0000 0.0000 (  1243 PWs)   bands (ev):

    -4.8235   8.9113   8.9113   8.9113

          k =-0.1111 0.1111-0.1111 (  1279 PWs)   bands (ev):

    -4.6272   7.4349   8.6112   8.6112

          k =-0.2222 0.2222-0.2222 (  1290 PWs)   bands (ev):

    -4.0471   5.0340   8.1070   8.1070

          k =-0.3333 0.3333-0.3333 (  1272 PWs)   bands (ev):

    -3.1247   2.7540   7.7248   7.7248

          k =-0.4444 0.4444-0.4444 (  1272 PWs)   bands (ev):

    -2.0736   0.9985   7.5324   7.5324

          k = 0.0000 0.2222 0.0000 (  1299 PWs)   bands (ev):

    -4.5615   7.9457   8.0276   8.0276

          k =-0.1111 0.3333-0.1111 (  1293 PWs)   bands (ev):

    -4.1079   5.8640   7.4532   7.7845

          k =-0.2222 0.4444-0.2222 (  1291 PWs)   bands (ev):

    -3.2922   3.5713   7.1063   7.1974

          k =-0.3333 0.5556-0.3333 (  1272 PWs)   bands (ev):

    -2.2289   1.6028   6.6685   7.0359

          k = 0.5556-0.3333 0.5556 (  1272 PWs)   bands (ev):

    -1.6912   0.8353   6.3277   7.2329

          k = 0.4444-0.2222 0.4444 (  1285 PWs)   bands (ev):

    -2.5952   2.2031   6.2388   7.6536

          k = 0.3333-0.1111 0.3333 (  1292 PWs)   bands (ev):

    -3.6029   4.3209   6.4496   8.2091

          k = 0.2222-0.0000 0.2222 (  1291 PWs)   bands (ev):

    -4.3024   6.4441   7.1462   8.6822

          k = 0.0000 0.4444 0.0000 (  1299 PWs)   bands (ev):

    -3.7818   5.9463   6.8078   6.8078

          k =-0.1111 0.5556-0.1111 (  1286 PWs)   bands (ev):

    -3.0842   4.2817   6.1051   6.4026

          k =-0.2222 0.6667-0.2222 (  1278 PWs)   bands (ev):

    -2.0793   2.4046   5.2365   6.3003

          k = 0.6667-0.2222 0.6667 (  1276 PWs)   bands (ev):

    -1.1800   1.1320   4.5994   6.5068

          k = 0.5556-0.1111 0.5556 (  1279 PWs)   bands (ev):

    -1.7465   1.9155   4.3161   6.9908

          k = 0.4444 0.0000 0.4444 (  1284 PWs)   bands (ev):

    -2.8005   3.5165   4.6808   7.6547

          k = 0.0000 0.6667 0.0000 (  1283 PWs)   bands (ev):

    -2.5058   3.6385   5.9157   5.9157

          k =-0.1111 0.7778-0.1111 (  1277 PWs)   bands (ev):

    -1.5932   2.3786   4.9440   5.7325

          k = 0.7778-0.1111 0.7778 (  1276 PWs)   bands (ev):

    -0.5505   1.2470   3.7509   5.8716

          k = 0.6667-0.0000 0.6667 (  1292 PWs)   bands (ev):

    -0.7265   1.4342   3.2789   6.3156

          k = 0.0000 0.8889 0.0000 (  1274 PWs)   bands (ev):

    -0.7773   1.3208   5.4564   5.4564

          k = 0.8889 0.0000 0.8889 (  1276 PWs)   bands (ev):

     0.2112   0.3674   4.5898   5.5046

          k =-0.2222 0.4444 0.0000 (  1288 PWs)   bands (ev):

    -3.5329   4.8734   5.9136   7.5322

          k =-0.3333 0.5556-0.1111 (  1287 PWs)   bands (ev):

    -2.6176   3.0170   5.2890   6.9410

          k = 0.5556-0.3333 0.7778 (  1274 PWs)   bands (ev):

    -1.5667   1.3434   5.1459   6.4966

          k =-0.2222 0.6667 0.0000 (  1283 PWs)   bands (ev):

    -2.2807   3.2455   5.0402   5.8956

          k = 0.6667-0.2222 0.8889 (  1270 PWs)   bands (ev):

    -1.2264   1.8869   4.2326   5.4799

          k = 0.5556-0.1111 0.7778 (  1270 PWs)   bands (ev):

    -0.7082   1.2847   3.7386   5.6379

          k = 0.4444 0.0000 0.6667 (  1267 PWs)   bands (ev):

    -1.6394   2.3322   3.8741   6.2113

          k = 0.7778-0.1111 1.0000 (  1275 PWs)   bands (ev):

    -0.6083   1.3384   4.6684   4.9001

          k = 0.6667-0.0000 0.8889 (  1270 PWs)   bands (ev):

     0.1239   0.7474   3.6561   5.0257

          k = 0.5556-0.1111 1.0000 (  1270 PWs)   bands (ev):

    -0.2002   1.1851   3.7275   4.5214

     highest occupied level (ev):     8.9113

!    total energy              =     -93.39080658 Ry
     Harris-Foulkes estimate   =     -93.39080663 Ry
     estimated scf accuracy    <       0.00000004 Ry

     total all-electron energy =     -1160.082543 Ry

     The total energy is the sum of the following terms:

     one-electron contribution =       7.69677354 Ry
     hartree contribution      =       0.90079178 Ry
     xc contribution           =     -12.55493829 Ry
     ewald contribution        =     -18.14500397 Ry
     one-center paw contrib.   =     -71.28842964 Ry

     convergence has been achieved in   5 iterations

     Forces acting on atoms (Ry/au):

     atom    1 type  1   force =    -0.00000000   -0.00000000   -0.00000000
     atom    2 type  1   force =     0.00000000    0.00000000    0.00000000

     Total force =     0.000000     Total SCF correction =     0.000000


     entering subroutine stress ...

          total   stress  (Ry/bohr**3)                   (kbar)     P=  376.42
   0.00255884   0.00000000   0.00000000        376.42      0.00      0.00
   0.00000000   0.00255884  -0.00000000          0.00    376.42     -0.00
   0.00000000  -0.00000000   0.00255884          0.00     -0.00    376.42


     Writing output data file pwscf.save
 
     init_run     :      0.54s CPU      0.55s WALL (       1 calls)
     electrons    :      2.59s CPU      3.79s WALL (       1 calls)
     forces       :      0.06s CPU      0.06s WALL (       1 calls)
     stress       :      0.19s CPU      0.19s WALL (       1 calls)

     Called by init_run:
     wfcinit      :      0.22s CPU      0.23s WALL (       1 calls)
     potinit      :      0.11s CPU      0.11s WALL (       1 calls)

     Called by electrons:
     c_bands      :      1.66s CPU      1.68s WALL (       5 calls)
     sum_band     :      0.35s CPU      0.36s WALL (       5 calls)
     v_of_rho     :      0.11s CPU      0.11s WALL (       6 calls)
     newd         :      0.04s CPU      0.04s WALL (       6 calls)
     mix_rho      :      0.00s CPU      0.01s WALL (       5 calls)

     Called by c_bands:
     init_us_2    :      0.10s CPU      0.10s WALL (     455 calls)
     cegterg      :      1.51s CPU      1.53s WALL (     175 calls)

     Called by *egterg:
     h_psi        :      1.56s CPU      1.58s WALL (     594 calls)
     s_psi        :      0.03s CPU      0.02s WALL (     594 calls)
     g_psi        :      0.02s CPU      0.02s WALL (     384 calls)
     cdiaghg      :      0.02s CPU      0.02s WALL (     559 calls)

     Called by h_psi:
     add_vuspsi   :      0.02s CPU      0.02s WALL (     594 calls)

     General routines
     calbec       :      0.05s CPU      0.05s WALL (     839 calls)
     fft          :      0.05s CPU      0.05s WALL (     102 calls)
     fftw         :      1.54s CPU      1.56s WALL (    5188 calls)
     davcio       :      0.00s CPU      0.00s WALL (      35 calls)
 
     Parallel routines
     fft_scatter  :      0.19s CPU      0.18s WALL (    5290 calls)

     PAW routines
     PAW_pot      :      0.53s CPU      0.53s WALL (       6 calls)
     PAW_symme    :      0.00s CPU      0.00s WALL (      11 calls)
 
     PWSCF        :     3.58s CPU         5.12s WALL

 
   This run was terminated on:  10:26:42   1May2015            

=------------------------------------------------------------------------------=
   JOB DONE.
=------------------------------------------------------------------------------=
