 argument  1 = NH3.nw
                                         
                                         


              Northwest Computational Chemistry Package (NWChem) 6.3
              ------------------------------------------------------


                    Environmental Molecular Sciences Laboratory
                       Pacific Northwest National Laboratory
                                Richland, WA 99352

                              Copyright (c) 1994-2012
                       Pacific Northwest National Laboratory
                            Battelle Memorial Institute

             NWChem is an open-source computational chemistry package
                        distributed under the terms of the
                      Educational Community License (ECL) 2.0
             A copy of the license is included with this distribution
                              in the LICENSE.TXT file

                                  ACKNOWLEDGMENT
                                  --------------

            This software and its documentation were developed at the
            EMSL at Pacific Northwest National Laboratory, a multiprogram
            national laboratory, operated for the U.S. Department of Energy
            by Battelle under Contract Number DE-AC05-76RL01830. Support
            for this work was provided by the Department of Energy Office
            of Biological and Environmental Research, Office of Basic
            Energy Sciences, and the Office of Advanced Scientific Computing.


           Job information
           ---------------

    hostname        = ChensPro.local
    program         = nwchem
    date            = Sun Apr 19 22:33:00 2015

    compiled        = Sat_Jul_20_13:52:43_2013
    source          = /Users/shyuepingong/Software/nwchem-6.3
    nwchem branch   = 6.3
    nwchem revision = 24277
    ga revision     = 10379
    input           = NH3.nw
    prefix          = NH3.
    data base       = ./NH3.db
    status          = startup
    nproc           =        1
    time left       =     -1s



           Memory information
           ------------------

    heap     =   32768001 doubles =    250.0 Mbytes
    stack    =   32768001 doubles =    250.0 Mbytes
    global   =   65536000 doubles =    500.0 Mbytes (distinct from heap & stack)
    total    =  131072002 doubles =   1000.0 Mbytes
    verify   = yes
    hardfail = no 


           Directory information
           ---------------------

  0 permanent = .
  0 scratch   = .




                                NWChem Input Module
                                -------------------



 Scaling coordinates for geometry "geometry" by  1.889725989
 (inverse scale =  0.529177249)

 C3V symmetry detected


                             Geometry "geometry" -> ""
                             -------------------------

 Output coordinates in angstroms (scale by  1.889725989 to convert to a.u.)

  No.       Tag          Charge          X              Y              Z
 ---- ---------------- ---------- -------------- -------------- --------------
    1 N                    7.0000     0.00000000     0.00000000     0.10898739
    2 H                    1.0000     0.72683573     0.72683573    -0.25430392
    3 H                    1.0000     0.26604034    -0.99287607    -0.25430392
    4 H                    1.0000    -0.99287607     0.26604034    -0.25430392

      Atomic Mass 
      ----------- 

      N                 14.003070
      H                  1.007825


 Effective nuclear repulsion energy (a.u.)      11.0848640562

            Nuclear Dipole moment (a.u.) 
            ----------------------------
        X                 Y               Z
 ---------------- ---------------- ----------------
     0.0000000000    -0.0000000000     0.0000000000

      Symmetry information
      --------------------

 Group name             C3v       
 Group number             17
 Group order               6
 No. of unique centers     2

      Symmetry unique atoms

     1    2


            XYZ format geometry
            -------------------
     4
 geometry
 N                     0.00000000     0.00000000     0.10898739
 H                     0.72683573     0.72683573    -0.25430392
 H                     0.26604034    -0.99287607    -0.25430392
 H                    -0.99287607     0.26604034    -0.25430392

 ==============================================================================
                                internuclear distances
 ------------------------------------------------------------------------------
       center one      |      center two      | atomic units |  angstroms
 ------------------------------------------------------------------------------
    2 H                |   1 N                |     2.06020  |     1.09021
    3 H                |   1 N                |     2.06020  |     1.09021
    4 H                |   1 N                |     2.06020  |     1.09021
 ------------------------------------------------------------------------------
                         number of included internuclear distances:          3
 ==============================================================================



 ==============================================================================
                                 internuclear angles
 ------------------------------------------------------------------------------
        center 1       |       center 2       |       center 3       |  degrees
 ------------------------------------------------------------------------------
    2 H                |   1 N                |   3 H                |   109.48
    2 H                |   1 N                |   4 H                |   109.48
    3 H                |   1 N                |   4 H                |   109.48
 ------------------------------------------------------------------------------
                            number of included internuclear angles:          3
 ==============================================================================



                                 H3N1 dft optimize
                                 -----------------
  library name resolved from: environment
  library file name is: </Users/chenzheng/Google Drive/nano266/resources/nwchem_basis/>
  
                      Basis "ao basis" -> "" (cartesian)
                      -----
  H (Hydrogen)
  ------------
            Exponent  Coefficients 
       -------------- ---------------------------------------------------------
  1 S  3.38650000E+01  0.025494
  1 S  5.09479000E+00  0.190373
  1 S  1.15879000E+00  0.852161

  2 S  3.25840000E-01  1.000000

  3 S  1.02741000E-01  1.000000

  N (Nitrogen)
  ------------
            Exponent  Coefficients 
       -------------- ---------------------------------------------------------
  1 S  6.29348000E+03  0.001970
  1 S  9.49044000E+02  0.014961
  1 S  2.18776000E+02  0.073501
  1 S  6.36916000E+01  0.248937
  1 S  1.88282000E+01  0.602460
  1 S  2.72023000E+00  0.256202

  2 S  3.06331000E+01  0.111906
  2 S  7.02614000E+00  0.921666
  2 S  2.11205000E+00 -0.002569

  3 P  3.06331000E+01  0.038312
  3 P  7.02614000E+00  0.237403
  3 P  2.11205000E+00  0.817592

  4 S  6.84009000E-01  1.000000

  5 P  6.84009000E-01  1.000000

  6 S  2.00878000E-01  1.000000

  7 P  2.00878000E-01  1.000000

  8 S  6.39000000E-02  1.000000

  9 P  6.39000000E-02  1.000000

 10 D  9.13000000E-01  1.000000



 Summary of "ao basis" -> "" (cartesian)
 ------------------------------------------------------------------------------
       Tag                 Description            Shells   Functions and Types
 ---------------- ------------------------------  ------  ---------------------
 H                          6-311+G*                 3        3   3s
 N                          6-311+G*                10       23   5s4p1d


  pbe96 is a nonlocal functional; adding pw91lda local functional. 


                           NWChem Geometry Optimization
                           ----------------------------




                                 H3N1 dft optimize


 maximum gradient threshold         (gmax) =   0.000450
 rms gradient threshold             (grms) =   0.000300
 maximum cartesian step threshold   (xmax) =   0.001800
 rms cartesian step threshold       (xrms) =   0.001200
 fixed trust radius                (trust) =   0.300000
 maximum step size to saddle      (sadstp) =   0.100000
 energy precision                  (eprec) =   5.0D-06
 maximum number of steps          (nptopt) =   20
 initial hessian option           (inhess) =    0
 line search option               (linopt) =    1
 hessian update option            (modupd) =    1
 saddle point option              (modsad) =    0
 initial eigen-mode to follow     (moddir) =    0
 initial variable to follow       (vardir) =    0
 follow first negative mode     (firstneg) =    T
 apply conjugacy                    (opcg) =    F
 source of zmatrix                         =           


          -------------------
          Energy Minimization
          -------------------


 Using diagonal initial Hessian 

          --------
          Step   0
          --------


                         Geometry "geometry" -> "geometry"
                         ---------------------------------

 Output coordinates in angstroms (scale by  1.889725989 to convert to a.u.)

  No.       Tag          Charge          X              Y              Z
 ---- ---------------- ---------- -------------- -------------- --------------
    1 N                    7.0000     0.00000000     0.00000000     0.10898739
    2 H                    1.0000     0.72683573     0.72683573    -0.25430392
    3 H                    1.0000     0.26604034    -0.99287607    -0.25430392
    4 H                    1.0000    -0.99287607     0.26604034    -0.25430392

      Atomic Mass 
      ----------- 

      N                 14.003070
      H                  1.007825


 Effective nuclear repulsion energy (a.u.)      11.0848640562

            Nuclear Dipole moment (a.u.) 
            ----------------------------
        X                 Y               Z
 ---------------- ---------------- ----------------
     0.0000000000    -0.0000000000     0.0000000000

      Symmetry information
      --------------------

 Group name             C3v       
 Group number             17
 Group order               6
 No. of unique centers     2

      Symmetry unique atoms

     1    2


                                 NWChem DFT Module
                                 -----------------


                                 H3N1 dft optimize


  Caching 1-el integrals 
  Rotation of axis 

            General Information
            -------------------
          SCF calculation type: DFT
          Wavefunction type:  closed shell.
          No. of atoms     :     4
          No. of electrons :    10
           Alpha electrons :     5
            Beta electrons :     5
          Charge           :     0
          Spin multiplicity:     1
          Use of symmetry is: on ; symmetry adaption is: on 
          Maximum number of iterations:  30
          AO basis - number of functions:    32
                     number of shells:    19
          Convergence on energy requested: 1.00D-06
          Convergence on density requested: 1.00D-05
          Convergence on gradient requested: 5.00D-04

              XC Information
              --------------
          PerdewBurkeErnzerhof Exchange Functional  1.000          
            Perdew 1991 LDA Correlation Functional  1.000 local    
           PerdewBurkeErnz. Correlation Functional  1.000 non-local

             Grid Information
             ----------------
          Grid used for XC integration:  medium    
          Radial quadrature: Mura-Knowles        
          Angular quadrature: Lebedev. 
          Tag              B.-S. Rad. Rad. Pts. Rad. Cut. Ang. Pts.
          ---              ---------- --------- --------- ---------
          N                   0.65       49           7.0       434
          H                   0.35       45           7.0       434
          Grid pruning is: on 
          Number of quadrature shells:    94
          Spatial weights used:  Erf1

          Convergence Information
          -----------------------
          Convergence aids based upon iterative change in 
          total energy or number of iterations. 
          Levelshifting, if invoked, occurs when the 
          HOMO/LUMO gap drops below (HL_TOL): 1.00D-02
          DIIS, if invoked, will attempt to extrapolate 
          using up to (NFOCK): 10 stored Fock matrices.

                    Damping( 0%)  Levelshifting(0.5)       DIIS
                  --------------- ------------------- ---------------
          dE  on:    start            ASAP                start   
          dE off:    2 iters         30 iters            30 iters 


      Screening Tolerance Information
      -------------------------------
          Density screening/tol_rho: 1.00D-10
          AO Gaussian exp screening on grid/accAOfunc:  14
          CD Gaussian exp screening on grid/accCDfunc:  20
          XC Gaussian exp screening on grid/accXCfunc:  20
          Schwarz screening/accCoul: 1.00D-08


      Superposition of Atomic Density Guess
      -------------------------------------

 Sum of atomic energies:         -55.80739562

      Non-variational initial energy
      ------------------------------

 Total energy =     -56.015210
 1-e energy   =     -96.737730
 2-e energy   =      29.637656
 HOMO         =      -0.349966
 LUMO         =       0.045352


      Symmetry analysis of molecular orbitals - initial
      -------------------------------------------------

  Numbering of irreducible representations: 

     1 a1          2 a2          3 e       

  Orbital symmetries:

     1 a1          2 a1          3 e           4 e           5 a1      
     6 a1          7 e           8 e           9 a1         10 e       
    11 e          12 a1         13 e          14 e          15 a1      

   Time after variat. SCF:      0.1
   Time prior to 1st pass:      0.1

 #quartets = 6.571D+03 #integrals = 4.227D+04 #direct =  0.0% #cached =100.0%


 Integral file          = ./NH3.aoints.0
 Record size in doubles =  65536        No. of integs per rec  =  43688
 Max. records in memory =      2        Max. records in file   = 184774
 No. of bits per label  =      8        No. of bits per value  =     64


 Grid_pts file          = ./NH3.gridpts.0
 Record size in doubles =  12289        No. of grid_pts per rec  =   3070
 Max. records in memory =     16        Max. recs in file   =    985386


           Memory utilization after 1st SCF pass: 
           Heap Space remaining (MW):       32.44            32438319
          Stack Space remaining (MW):       32.77            32767696

   convergence    iter        energy       DeltaE   RMS-Dens  Diis-err    time
 ---------------- ----- ----------------- --------- --------- ---------  ------
 d= 0,ls=0.0,diis     1    -56.4583616741 -6.75D+01  2.22D-02  3.59D-01     0.3
 d= 0,ls=0.0,diis     2    -56.4411785487  1.72D-02  1.58D-02  3.94D-01     0.3
 d= 0,ls=0.0,diis     3    -56.4740656468 -3.29D-02  3.76D-03  1.15D-01     0.4
 d= 0,ls=0.0,diis     4    -56.4856814982 -1.16D-02  8.76D-04  5.44D-04     0.5
 d= 0,ls=0.0,diis     5    -56.4857394327 -5.79D-05  7.52D-05  1.33D-05     0.5
  Resetting Diis
 d= 0,ls=0.0,diis     6    -56.4857410759 -1.64D-06  5.98D-06  1.34D-07     0.6
 d= 0,ls=0.0,diis     7    -56.4857410912 -1.52D-08  7.01D-07  2.97D-10     0.7


         Total DFT energy =      -56.485741091157
      One electron energy =      -98.011078888815
           Coulomb energy =       38.288152775242
    Exchange-Corr. energy =       -7.847679033810
 Nuclear repulsion energy =       11.084864056225

 Numeric. integr. density =       10.000000055830

     Total iterative time =      0.6s



                  Occupations of the irreducible representations
                  ----------------------------------------------

                     irrep           alpha         beta
                     --------     --------     --------
                     a1                3.0          3.0
                     a2                0.0          0.0
                     e                 2.0          2.0


                       DFT Final Molecular Orbital Analysis
                       ------------------------------------

 Vector    1  Occ=2.000000D+00  E=-1.398560D+01  Symmetry=a1
              MO Center=  7.0D-21,  5.1D-21,  1.1D-01, r^2= 2.0D-02
   Bfn.  Coefficient  Atom+Function         Bfn.  Coefficient  Atom+Function  
  ----- ------------  ---------------      ----- ------------  ---------------
     1      0.558492  1 N  s                  2      0.461030  1 N  s          

 Vector    2  Occ=2.000000D+00  E=-7.520379D-01  Symmetry=a1
              MO Center= -1.2D-17, -2.6D-18, -7.5D-02, r^2= 7.3D-01
   Bfn.  Coefficient  Atom+Function         Bfn.  Coefficient  Atom+Function  
  ----- ------------  ---------------      ----- ------------  ---------------
     6      0.487213  1 N  s                 10      0.401218  1 N  s          
     2     -0.174661  1 N  s          

 Vector    3  Occ=2.000000D+00  E=-4.042898D-01  Symmetry=e
              MO Center=  2.0D-01, -7.6D-02, -5.1D-02, r^2= 1.1D+00
   Bfn.  Coefficient  Atom+Function         Bfn.  Coefficient  Atom+Function  
  ----- ------------  ---------------      ----- ------------  ---------------
     8      0.323414  1 N  py                12      0.229026  1 N  py         
     4      0.208832  1 N  py                28     -0.190100  3 H  s          
    25      0.179364  2 H  s                 27     -0.153624  3 H  s          

 Vector    4  Occ=2.000000D+00  E=-4.042898D-01  Symmetry=e
              MO Center= -2.0D-01,  7.6D-02, -5.1D-02, r^2= 1.1D+00
   Bfn.  Coefficient  Atom+Function         Bfn.  Coefficient  Atom+Function  
  ----- ------------  ---------------      ----- ------------  ---------------
     7      0.323414  1 N  px                11      0.229026  1 N  px         
    31     -0.213310  4 H  s                  3      0.208832  1 N  px         
    30     -0.172380  4 H  s          

 Vector    5  Occ=2.000000D+00  E=-2.142502D-01  Symmetry=a1
              MO Center= -1.8D-16, -1.8D-16,  2.4D-01, r^2= 1.1D+00
   Bfn.  Coefficient  Atom+Function         Bfn.  Coefficient  Atom+Function  
  ----- ------------  ---------------      ----- ------------  ---------------
    13      0.412827  1 N  pz                 9      0.370827  1 N  pz         
     5      0.256791  1 N  pz                10      0.194923  1 N  s          
     6      0.187725  1 N  s                 17      0.159946  1 N  pz         

 Vector    6  Occ=0.000000D+00  E=-1.090782D-02  Symmetry=a1
              MO Center= -1.2D-16, -1.4D-16, -5.3D-01, r^2= 4.3D+00
   Bfn.  Coefficient  Atom+Function         Bfn.  Coefficient  Atom+Function  
  ----- ------------  ---------------      ----- ------------  ---------------
    14      1.760942  1 N  s                 10     -1.051751  1 N  s          
    17     -0.410801  1 N  pz                13      0.228058  1 N  pz         
     6     -0.219816  1 N  s                 26     -0.212693  2 H  s          
    29     -0.212693  3 H  s                 32     -0.212693  4 H  s          
    25      0.204241  2 H  s                 28      0.204241  3 H  s          

 Vector    7  Occ=0.000000D+00  E= 6.986752D-02  Symmetry=e
              MO Center=  2.6D-03, -2.1D-01, -4.2D-02, r^2= 5.5D+00
   Bfn.  Coefficient  Atom+Function         Bfn.  Coefficient  Atom+Function  
  ----- ------------  ---------------      ----- ------------  ---------------
    16      0.863175  1 N  py                12     -0.598267  1 N  py         
    15     -0.351336  1 N  px                29     -0.320563  3 H  s          
    11      0.243511  1 N  px                 8     -0.215561  1 N  py         
    32      0.195095  4 H  s                 28     -0.178827  3 H  s          
     4     -0.155791  1 N  py         

 Vector    8  Occ=0.000000D+00  E= 6.986752D-02  Symmetry=e
              MO Center= -2.6D-03,  2.1D-01, -4.2D-02, r^2= 5.5D+00
   Bfn.  Coefficient  Atom+Function         Bfn.  Coefficient  Atom+Function  
  ----- ------------  ---------------      ----- ------------  ---------------
    15      0.863175  1 N  px                11     -0.598267  1 N  px         
    16      0.351336  1 N  py                26      0.297715  2 H  s          
    32     -0.257516  4 H  s                 12     -0.243511  1 N  py         
     7     -0.215561  1 N  px                25      0.166081  2 H  s          
     3     -0.155791  1 N  px         

 Vector    9  Occ=0.000000D+00  E= 9.871116D-02  Symmetry=a1
              MO Center= -2.7D-16, -2.2D-16, -1.4D-01, r^2= 6.5D+00
   Bfn.  Coefficient  Atom+Function         Bfn.  Coefficient  Atom+Function  
  ----- ------------  ---------------      ----- ------------  ---------------
    14      1.958321  1 N  s                 17     -1.578092  1 N  pz         
    26     -1.087689  2 H  s                 29     -1.087689  3 H  s          
    32     -1.087689  4 H  s                 10      0.681600  1 N  s          
    13      0.319021  1 N  pz         

 Vector   10  Occ=0.000000D+00  E= 1.125598D-01  Symmetry=e
              MO Center=  2.2D-01,  4.6D-02,  2.7D-01, r^2= 5.3D+00
   Bfn.  Coefficient  Atom+Function         Bfn.  Coefficient  Atom+Function  
  ----- ------------  ---------------      ----- ------------  ---------------
    32      2.439686  4 H  s                 29     -1.719737  3 H  s          
    15      1.680720  1 N  px                16     -0.905404  1 N  py         
    26     -0.719949  2 H  s                 11      0.454446  1 N  px         
    12     -0.244810  1 N  py                31      0.199849  4 H  s          

 Vector   11  Occ=0.000000D+00  E= 1.125598D-01  Symmetry=e
              MO Center= -2.2D-01, -4.6D-02,  2.7D-01, r^2= 5.3D+00
   Bfn.  Coefficient  Atom+Function         Bfn.  Coefficient  Atom+Function  
  ----- ------------  ---------------      ----- ------------  ---------------
    26      2.401444  2 H  s                 29     -1.824216  3 H  s          
    16     -1.680720  1 N  py                15     -0.905404  1 N  px         
    32     -0.577228  4 H  s                 12     -0.454446  1 N  py         
    11     -0.244810  1 N  px                25      0.196716  2 H  s          

 Vector   12  Occ=0.000000D+00  E= 1.560356D-01  Symmetry=a1
              MO Center=  1.1D-14,  1.4D-14,  2.0D-01, r^2= 6.1D+00
   Bfn.  Coefficient  Atom+Function         Bfn.  Coefficient  Atom+Function  
  ----- ------------  ---------------      ----- ------------  ---------------
    14      5.976304  1 N  s                 26     -2.583466  2 H  s          
    29     -2.583466  3 H  s                 32     -2.583466  4 H  s          
    10      0.839917  1 N  s                 17     -0.777096  1 N  pz         
    13     -0.516042  1 N  pz         

 Vector   13  Occ=0.000000D+00  E= 4.368830D-01  Symmetry=e
              MO Center= -2.7D-01, -6.3D-02, -9.1D-02, r^2= 4.4D+00
   Bfn.  Coefficient  Atom+Function         Bfn.  Coefficient  Atom+Function  
  ----- ------------  ---------------      ----- ------------  ---------------
    32      3.307027  4 H  s                 29     -2.367877  3 H  s          
    15      1.593831  1 N  px                31     -1.562944  4 H  s          
    28      1.119089  3 H  s                 26     -0.939151  2 H  s          
    16     -0.883677  1 N  py                11     -0.565804  1 N  px         
    25      0.443855  2 H  s                 12      0.313702  1 N  py         

 Vector   14  Occ=0.000000D+00  E= 4.368830D-01  Symmetry=e
              MO Center=  2.7D-01,  6.3D-02, -9.1D-02, r^2= 4.4D+00
   Bfn.  Coefficient  Atom+Function         Bfn.  Coefficient  Atom+Function  
  ----- ------------  ---------------      ----- ------------  ---------------
    26      3.276407  2 H  s                 29     -2.451532  3 H  s          
    16     -1.593831  1 N  py                25     -1.548472  2 H  s          
    28      1.158626  3 H  s                 15     -0.883677  1 N  px         
    32     -0.824876  4 H  s                 12      0.565804  1 N  py         
    31      0.389847  4 H  s                 11      0.313702  1 N  px         

 Vector   15  Occ=0.000000D+00  E= 5.291621D-01  Symmetry=a1
              MO Center=  3.1D-14, -7.5D-15, -4.7D-01, r^2= 4.1D+00
   Bfn.  Coefficient  Atom+Function         Bfn.  Coefficient  Atom+Function  
  ----- ------------  ---------------      ----- ------------  ---------------
    14      5.593374  1 N  s                 26     -3.129675  2 H  s          
    29     -3.129675  3 H  s                 32     -3.129675  4 H  s          
    25      1.326967  2 H  s                 28      1.326967  3 H  s          
    31      1.326967  4 H  s                 17     -1.189613  1 N  pz         
    13      0.333517  1 N  pz                 6     -0.296767  1 N  s          


 center of mass
 --------------
 x =   0.00000000 y =  -0.00000000 z =   0.08404789

 moments of inertia (a.u.)
 ------------------
           6.875916168729           0.000000000000           0.000000000000
           0.000000000000           6.875916168729           0.000000000000
           0.000000000000           0.000000000000          11.407922994090

     Multipole analysis of the density
     ---------------------------------

     L   x y z        total         alpha         beta         nuclear
     -   - - -        -----         -----         ----         -------
     0   0 0 0     -0.000000     -5.000000     -5.000000     10.000000

     1   1 0 0      0.000000      0.000000      0.000000      0.000000
     1   0 1 0     -0.000000     -0.000000     -0.000000     -0.000000
     1   0 0 1     -0.642408     -0.321204     -0.321204      0.000000

     2   2 0 0     -4.660041     -5.159858     -5.159858      5.659675
     2   1 1 0     -0.000000     -0.000000     -0.000000     -0.000000
     2   1 0 1      0.000000      0.000000      0.000000      0.000000
     2   0 2 0     -4.660041     -5.159858     -5.159858      5.659675
     2   0 1 1      0.000000      0.000000      0.000000      0.000000
     2   0 0 2     -7.679238     -4.334496     -4.334496      0.989753


 Parallel integral file used       1 records with       0 large values



                            NWChem DFT Gradient Module
                            --------------------------


                                 H3N1 dft optimize



  charge          =   0.00
  wavefunction    = closed shell

  Rotation of axis 
  Using symmetry


                         DFT ENERGY GRADIENTS

    atom               coordinates                        gradient
                 x          y          z           x          y          z
   1 N       0.000000   0.000000   0.205956    0.000000   0.000000   0.029593
   2 H       1.373520   1.373520  -0.480565    0.032484   0.032484  -0.009864
   3 H       0.502743  -1.876264  -0.480565    0.011890  -0.044374  -0.009864
   4 H      -1.876264   0.502743  -0.480565   -0.044374   0.011890  -0.009864

                 ----------------------------------------
                 |  Time  |  1-e(secs)   |  2-e(secs)   |
                 ----------------------------------------
                 |  CPU   |       0.00   |       0.07   |
                 ----------------------------------------
                 |  WALL  |       0.00   |       0.07   |
                 ----------------------------------------

@ Step       Energy      Delta E   Gmax     Grms     Xrms     Xmax   Walltime
@ ---- ---------------- -------- -------- -------- -------- -------- --------
@    0     -56.48574109  0.0D+00  0.04437  0.02500  0.00000  0.00000      1.1
                                                                    


                                 NWChem DFT Module
                                 -----------------


                                 H3N1 dft optimize


  Caching 1-el integrals 
  Rotation of axis 

            General Information
            -------------------
          SCF calculation type: DFT
          Wavefunction type:  closed shell.
          No. of atoms     :     4
          No. of electrons :    10
           Alpha electrons :     5
            Beta electrons :     5
          Charge           :     0
          Spin multiplicity:     1
          Use of symmetry is: on ; symmetry adaption is: on 
          Maximum number of iterations:  30
          AO basis - number of functions:    32
                     number of shells:    19
          Convergence on energy requested: 1.00D-06
          Convergence on density requested: 1.00D-05
          Convergence on gradient requested: 5.00D-04

              XC Information
              --------------
          PerdewBurkeErnzerhof Exchange Functional  1.000          
            Perdew 1991 LDA Correlation Functional  1.000 local    
           PerdewBurkeErnz. Correlation Functional  1.000 non-local

             Grid Information
             ----------------
          Grid used for XC integration:  medium    
          Radial quadrature: Mura-Knowles        
          Angular quadrature: Lebedev. 
          Tag              B.-S. Rad. Rad. Pts. Rad. Cut. Ang. Pts.
          ---              ---------- --------- --------- ---------
          N                   0.65       49           7.0       434
          H                   0.35       45           7.0       434
          Grid pruning is: on 
          Number of quadrature shells:    94
          Spatial weights used:  Erf1

          Convergence Information
          -----------------------
          Convergence aids based upon iterative change in 
          total energy or number of iterations. 
          Levelshifting, if invoked, occurs when the 
          HOMO/LUMO gap drops below (HL_TOL): 1.00D-02
          DIIS, if invoked, will attempt to extrapolate 
          using up to (NFOCK): 10 stored Fock matrices.

                    Damping( 0%)  Levelshifting(0.5)       DIIS
                  --------------- ------------------- ---------------
          dE  on:    start            ASAP                start   
          dE off:    2 iters         30 iters            30 iters 


      Screening Tolerance Information
      -------------------------------
          Density screening/tol_rho: 1.00D-10
          AO Gaussian exp screening on grid/accAOfunc:  14
          CD Gaussian exp screening on grid/accCDfunc:  20
          XC Gaussian exp screening on grid/accXCfunc:  20
          Schwarz screening/accCoul: 1.00D-08


 Loading old vectors from job with title :

H3N1 dft optimize


      Symmetry analysis of molecular orbitals - initial
      -------------------------------------------------

  Numbering of irreducible representations: 

     1 a1          2 a2          3 e       

  Orbital symmetries:

     1 a1          2 a1          3 e           4 e           5 a1      
     6 a1          7 e           8 e           9 a1         10 e       
    11 e          12 a1         13 e          14 e          15 a1      

   Time after variat. SCF:      0.9
   Time prior to 1st pass:      0.9

 #quartets = 6.571D+03 #integrals = 4.227D+04 #direct =  0.0% #cached =100.0%


 Integral file          = ./NH3.aoints.0
 Record size in doubles =  65536        No. of integs per rec  =  43688
 Max. records in memory =      2        Max. records in file   = 184772
 No. of bits per label  =      8        No. of bits per value  =     64


 Grid_pts file          = ./NH3.gridpts.0
 Record size in doubles =  12289        No. of grid_pts per rec  =   3070
 Max. records in memory =     16        Max. recs in file   =    985376


           Memory utilization after 1st SCF pass: 
           Heap Space remaining (MW):       32.44            32438319
          Stack Space remaining (MW):       32.77            32767696

   convergence    iter        energy       DeltaE   RMS-Dens  Diis-err    time
 ---------------- ----- ----------------- --------- --------- ---------  ------
 d= 0,ls=0.0,diis     1    -56.4937916284 -6.82D+01  4.36D-03  1.77D-02     1.1
 d= 0,ls=0.0,diis     2    -56.4926232084  1.17D-03  2.60D-03  3.09D-02     1.2
 d= 0,ls=0.0,diis     3    -56.4956370233 -3.01D-03  7.46D-04  1.78D-03     1.3
 d= 0,ls=0.0,diis     4    -56.4958087776 -1.72D-04  1.65D-04  2.32D-05     1.3
 d= 0,ls=0.0,diis     5    -56.4958110749 -2.30D-06  8.85D-06  1.92D-07     1.4
 d= 0,ls=0.0,diis     6    -56.4958110983 -2.34D-08  2.99D-07  2.56D-10     1.5


         Total DFT energy =      -56.495811098306
      One electron energy =      -99.171553950493
           Coulomb energy =       38.878159896350
    Exchange-Corr. energy =       -7.916800289380
 Nuclear repulsion energy =       11.714383245217

 Numeric. integr. density =        9.999998959564

     Total iterative time =      0.6s



                  Occupations of the irreducible representations
                  ----------------------------------------------

                     irrep           alpha         beta
                     --------     --------     --------
                     a1                3.0          3.0
                     a2                0.0          0.0
                     e                 2.0          2.0


                       DFT Final Molecular Orbital Analysis
                       ------------------------------------

 Vector    1  Occ=2.000000D+00  E=-1.397089D+01  Symmetry=a1
              MO Center=  1.5D-17, -8.9D-18,  1.1D-01, r^2= 2.0D-02
   Bfn.  Coefficient  Atom+Function         Bfn.  Coefficient  Atom+Function  
  ----- ------------  ---------------      ----- ------------  ---------------
     1      0.558446  1 N  s                  2      0.460930  1 N  s          

 Vector    2  Occ=2.000000D+00  E=-7.745409D-01  Symmetry=a1
              MO Center=  7.8D-18, -7.8D-18, -8.6D-02, r^2= 7.0D-01
   Bfn.  Coefficient  Atom+Function         Bfn.  Coefficient  Atom+Function  
  ----- ------------  ---------------      ----- ------------  ---------------
     6      0.482979  1 N  s                 10      0.388109  1 N  s          
     2     -0.173446  1 N  s          

 Vector    3  Occ=2.000000D+00  E=-4.160814D-01  Symmetry=e
              MO Center=  1.4D-01,  1.4D-01, -4.7D-02, r^2= 1.0D+00
   Bfn.  Coefficient  Atom+Function         Bfn.  Coefficient  Atom+Function  
  ----- ------------  ---------------      ----- ------------  ---------------
     8      0.241510  1 N  py                 7      0.235863  1 N  px         
    25      0.207838  2 H  s                 24      0.176239  2 H  s          
    12      0.163694  1 N  py                11      0.159867  1 N  px         
     4      0.155892  1 N  py                 3      0.152248  1 N  px         

 Vector    4  Occ=2.000000D+00  E=-4.160814D-01  Symmetry=e
              MO Center= -1.4D-01, -1.4D-01, -4.7D-02, r^2= 1.0D+00
   Bfn.  Coefficient  Atom+Function         Bfn.  Coefficient  Atom+Function  
  ----- ------------  ---------------      ----- ------------  ---------------
     7      0.241510  1 N  px                 8     -0.235863  1 N  py         
    31     -0.181222  4 H  s                 28      0.178764  3 H  s          
    11      0.163694  1 N  px                12     -0.159867  1 N  py         
     3      0.155892  1 N  px                30     -0.153670  4 H  s          
     4     -0.152248  1 N  py                27      0.151585  3 H  s          

 Vector    5  Occ=2.000000D+00  E=-2.183595D-01  Symmetry=a1
              MO Center= -2.8D-18, -2.0D-18,  2.7D-01, r^2= 1.0D+00
   Bfn.  Coefficient  Atom+Function         Bfn.  Coefficient  Atom+Function  
  ----- ------------  ---------------      ----- ------------  ---------------
    13      0.419318  1 N  pz                 9      0.371534  1 N  pz         
     5      0.255330  1 N  pz                 6      0.196348  1 N  s          
    10      0.178498  1 N  s                 17      0.153676  1 N  pz         

 Vector    6  Occ=0.000000D+00  E=-5.468492D-03  Symmetry=a1
              MO Center=  1.7D-16,  4.4D-16, -7.0D-01, r^2= 4.7D+00
   Bfn.  Coefficient  Atom+Function         Bfn.  Coefficient  Atom+Function  
  ----- ------------  ---------------      ----- ------------  ---------------
    14      2.374674  1 N  s                 10     -0.909046  1 N  s          
    17     -0.592333  1 N  pz                26     -0.496443  2 H  s          
    29     -0.496443  3 H  s                 32     -0.496443  4 H  s          
     6     -0.205641  1 N  s                 25      0.202137  2 H  s          
    28      0.202137  3 H  s                 31      0.202137  4 H  s          

 Vector    7  Occ=0.000000D+00  E= 7.480640D-02  Symmetry=e
              MO Center= -1.2D-02, -1.6D-02,  9.7D-02, r^2= 6.2D+00
   Bfn.  Coefficient  Atom+Function         Bfn.  Coefficient  Atom+Function  
  ----- ------------  ---------------      ----- ------------  ---------------
    16      0.922606  1 N  py                15     -0.799262  1 N  px         
    12     -0.408520  1 N  py                11      0.353905  1 N  px         

 Vector    8  Occ=0.000000D+00  E= 7.480640D-02  Symmetry=e
              MO Center=  1.2D-02,  1.6D-02,  9.7D-02, r^2= 6.2D+00
   Bfn.  Coefficient  Atom+Function         Bfn.  Coefficient  Atom+Function  
  ----- ------------  ---------------      ----- ------------  ---------------
    15      0.922606  1 N  px                16      0.799262  1 N  py         
    11     -0.408520  1 N  px                12     -0.353905  1 N  py         

 Vector    9  Occ=0.000000D+00  E= 1.025828D-01  Symmetry=a1
              MO Center= -9.9D-16,  1.1D-14,  3.1D-01, r^2= 6.4D+00
   Bfn.  Coefficient  Atom+Function         Bfn.  Coefficient  Atom+Function  
  ----- ------------  ---------------      ----- ------------  ---------------
    17      1.485556  1 N  pz                14     -1.255312  1 N  s          
    26      0.831617  2 H  s                 29      0.831617  3 H  s          
    32      0.831617  4 H  s                 10     -0.743155  1 N  s          
    13     -0.346117  1 N  pz         

 Vector   10  Occ=0.000000D+00  E= 1.268628D-01  Symmetry=e
              MO Center=  5.3D-03,  5.3D-03,  1.2D-01, r^2= 4.9D+00
   Bfn.  Coefficient  Atom+Function         Bfn.  Coefficient  Atom+Function  
  ----- ------------  ---------------      ----- ------------  ---------------
    29      2.423289  3 H  s                 32     -2.419260  4 H  s          
    15     -1.248505  1 N  px                16      1.252108  1 N  py         
    11     -0.478986  1 N  px                12      0.480368  1 N  py         
    28      0.201360  3 H  s                 31     -0.201025  4 H  s          

 Vector   11  Occ=0.000000D+00  E= 1.268628D-01  Symmetry=e
              MO Center= -5.3D-03, -5.3D-03,  1.2D-01, r^2= 4.9D+00
   Bfn.  Coefficient  Atom+Function         Bfn.  Coefficient  Atom+Function  
  ----- ------------  ---------------      ----- ------------  ---------------
    26      2.795847  2 H  s                 32     -1.401412  4 H  s          
    29     -1.394435  3 H  s                 15     -1.252108  1 N  px         
    16     -1.248505  1 N  py                11     -0.480368  1 N  px         
    12     -0.478986  1 N  py                25      0.232317  2 H  s          

 Vector   12  Occ=0.000000D+00  E= 1.746153D-01  Symmetry=a1
              MO Center= -2.3D-15, -2.7D-15, -1.5D-01, r^2= 6.1D+00
   Bfn.  Coefficient  Atom+Function         Bfn.  Coefficient  Atom+Function  
  ----- ------------  ---------------      ----- ------------  ---------------
    14      6.446777  1 N  s                 26     -2.924361  2 H  s          
    29     -2.924361  3 H  s                 32     -2.924361  4 H  s          
    10      1.363261  1 N  s                 17     -1.046364  1 N  pz         
    13     -0.555228  1 N  pz         

 Vector   13  Occ=0.000000D+00  E= 4.542909D-01  Symmetry=e
              MO Center= -1.5D-01, -5.1D-02, -1.3D-02, r^2= 4.3D+00
   Bfn.  Coefficient  Atom+Function         Bfn.  Coefficient  Atom+Function  
  ----- ------------  ---------------      ----- ------------  ---------------
    32      3.309927  4 H  s                 29     -2.512232  3 H  s          
    31     -1.628347  4 H  s                 15      1.586865  1 N  px         
    28      1.235914  3 H  s                 16     -0.978162  1 N  py         
    26     -0.797695  2 H  s                 11     -0.731504  1 N  px         
    12      0.450908  1 N  py                25      0.392433  2 H  s          

 Vector   14  Occ=0.000000D+00  E= 4.542909D-01  Symmetry=e
              MO Center=  1.5D-01,  5.1D-02, -1.3D-02, r^2= 4.3D+00
   Bfn.  Coefficient  Atom+Function         Bfn.  Coefficient  Atom+Function  
  ----- ------------  ---------------      ----- ------------  ---------------
    26      3.361425  2 H  s                 29     -2.371537  3 H  s          
    25     -1.653682  2 H  s                 16     -1.586865  1 N  py         
    28      1.166698  3 H  s                 32     -0.989888  4 H  s          
    15     -0.978162  1 N  px                12      0.731504  1 N  py         
    31      0.486984  4 H  s                 11      0.450908  1 N  px         

 Vector   15  Occ=0.000000D+00  E= 5.711046D-01  Symmetry=a1
              MO Center=  9.8D-15,  1.1D-14, -6.1D-01, r^2= 3.5D+00
   Bfn.  Coefficient  Atom+Function         Bfn.  Coefficient  Atom+Function  
  ----- ------------  ---------------      ----- ------------  ---------------
    14      5.402032  1 N  s                 26     -2.969812  2 H  s          
    29     -2.969812  3 H  s                 32     -2.969812  4 H  s          
    25      1.554134  2 H  s                 28      1.554134  3 H  s          
    31      1.554134  4 H  s                 17     -1.276249  1 N  pz         
    10     -0.768937  1 N  s                 13      0.726487  1 N  pz         


 center of mass
 --------------
 x =  -0.00000000 y =   0.00000000 z =   0.09100871

 moments of inertia (a.u.)
 ------------------
           6.230316234442           0.000000000000          -0.000000000000
           0.000000000000           6.230316234442           0.000000000000
          -0.000000000000           0.000000000000          10.032953354769

     Multipole analysis of the density
     ---------------------------------

     L   x y z        total         alpha         beta         nuclear
     -   - - -        -----         -----         ----         -------
     0   0 0 0     -0.000000     -5.000000     -5.000000     10.000000

     1   1 0 0     -0.000000     -0.000000     -0.000000     -0.000000
     1   0 1 0     -0.000000     -0.000000     -0.000000      0.000000
     1   0 0 1     -0.696926     -0.375823     -0.375823      0.054721

     2   2 0 0     -4.701484     -4.839506     -4.839506      4.977528
     2   1 1 0      0.000000      0.000000      0.000000     -0.000000
     2   1 0 1      0.000000      0.000000      0.000000      0.000000
     2   0 2 0     -4.701484     -4.839506     -4.839506      4.977528
     2   0 1 1     -0.000000      0.000000      0.000000     -0.000000
     2   0 0 2     -7.478644     -4.252035     -4.252035      1.025426


 Parallel integral file used       1 records with       0 large values

 Line search: 
     step= 1.00 grad=-1.6D-02 hess= 6.2D-03 energy=    -56.495811 mode=downhill
 new step= 1.31                   predicted energy=    -56.496407

          --------
          Step   1
          --------


                         Geometry "geometry" -> "geometry"
                         ---------------------------------

 Output coordinates in angstroms (scale by  1.889725989 to convert to a.u.)

  No.       Tag          Charge          X              Y              Z
 ---- ---------------- ---------- -------------- -------------- --------------
    1 N                    7.0000     0.00000000     0.00000000     0.11530677
    2 H                    1.0000     0.66764086     0.66764086    -0.25641038
    3 H                    1.0000     0.24437352    -0.91201438    -0.25641038
    4 H                    1.0000    -0.91201438     0.24437352    -0.25641038

      Atomic Mass 
      ----------- 

      N                 14.003070
      H                  1.007825


 Effective nuclear repulsion energy (a.u.)      11.9222282414

            Nuclear Dipole moment (a.u.) 
            ----------------------------
        X                 Y               Z
 ---------------- ---------------- ----------------
    -0.0000000000    -0.0000000000     0.0716513085

      Symmetry information
      --------------------

 Group name             C3v       
 Group number             17
 Group order               6
 No. of unique centers     2

      Symmetry unique atoms

     1    2


                                 NWChem DFT Module
                                 -----------------


                                 H3N1 dft optimize


  Caching 1-el integrals 
  Rotation of axis 

            General Information
            -------------------
          SCF calculation type: DFT
          Wavefunction type:  closed shell.
          No. of atoms     :     4
          No. of electrons :    10
           Alpha electrons :     5
            Beta electrons :     5
          Charge           :     0
          Spin multiplicity:     1
          Use of symmetry is: on ; symmetry adaption is: on 
          Maximum number of iterations:  30
          AO basis - number of functions:    32
                     number of shells:    19
          Convergence on energy requested: 1.00D-06
          Convergence on density requested: 1.00D-05
          Convergence on gradient requested: 5.00D-04

              XC Information
              --------------
          PerdewBurkeErnzerhof Exchange Functional  1.000          
            Perdew 1991 LDA Correlation Functional  1.000 local    
           PerdewBurkeErnz. Correlation Functional  1.000 non-local

             Grid Information
             ----------------
          Grid used for XC integration:  medium    
          Radial quadrature: Mura-Knowles        
          Angular quadrature: Lebedev. 
          Tag              B.-S. Rad. Rad. Pts. Rad. Cut. Ang. Pts.
          ---              ---------- --------- --------- ---------
          N                   0.65       49           7.0       434
          H                   0.35       45           7.0       434
          Grid pruning is: on 
          Number of quadrature shells:    94
          Spatial weights used:  Erf1

          Convergence Information
          -----------------------
          Convergence aids based upon iterative change in 
          total energy or number of iterations. 
          Levelshifting, if invoked, occurs when the 
          HOMO/LUMO gap drops below (HL_TOL): 1.00D-02
          DIIS, if invoked, will attempt to extrapolate 
          using up to (NFOCK): 10 stored Fock matrices.

                    Damping( 0%)  Levelshifting(0.5)       DIIS
                  --------------- ------------------- ---------------
          dE  on:    start            ASAP                start   
          dE off:    2 iters         30 iters            30 iters 


      Screening Tolerance Information
      -------------------------------
          Density screening/tol_rho: 1.00D-10
          AO Gaussian exp screening on grid/accAOfunc:  14
          CD Gaussian exp screening on grid/accCDfunc:  20
          XC Gaussian exp screening on grid/accXCfunc:  20
          Schwarz screening/accCoul: 1.00D-08


 Loading old vectors from job with title :

H3N1 dft optimize


      Symmetry analysis of molecular orbitals - initial
      -------------------------------------------------

  Numbering of irreducible representations: 

     1 a1          2 a2          3 e       

  Orbital symmetries:

     1 a1          2 a1          3 e           4 e           5 a1      
     6 a1          7 e           8 e           9 a1         10 e       
    11 e          12 a1         13 e          14 e          15 a1      

   Time after variat. SCF:      1.5
   Time prior to 1st pass:      1.5

 #quartets = 6.571D+03 #integrals = 4.227D+04 #direct =  0.0% #cached =100.0%


 Integral file          = ./NH3.aoints.0
 Record size in doubles =  65536        No. of integs per rec  =  43688
 Max. records in memory =      2        Max. records in file   = 184772
 No. of bits per label  =      8        No. of bits per value  =     64


 Grid_pts file          = ./NH3.gridpts.0
 Record size in doubles =  12289        No. of grid_pts per rec  =   3070
 Max. records in memory =     16        Max. recs in file   =    985376


           Memory utilization after 1st SCF pass: 
           Heap Space remaining (MW):       32.44            32438319
          Stack Space remaining (MW):       32.77            32767696

   convergence    iter        energy       DeltaE   RMS-Dens  Diis-err    time
 ---------------- ----- ----------------- --------- --------- ---------  ------
 d= 0,ls=0.0,diis     1    -56.4957777133 -6.84D+01  1.46D-03  1.89D-03     1.7
 d= 0,ls=0.0,diis     2    -56.4956636265  1.14D-04  8.36D-04  3.13D-03     1.8
 d= 0,ls=0.0,diis     3    -56.4959679821 -3.04D-04  2.48D-04  1.93D-04     1.8
 d= 0,ls=0.0,diis     4    -56.4959866000 -1.86D-05  5.17D-05  2.43D-06     1.9
 d= 0,ls=0.0,diis     5    -56.4959868384 -2.38D-07  2.66D-06  1.53D-08     2.0


         Total DFT energy =      -56.495986838419
      One electron energy =      -99.548757296783
           Coulomb energy =       39.070006401893
    Exchange-Corr. energy =       -7.939464184944
 Nuclear repulsion energy =       11.922228241414

 Numeric. integr. density =        9.999998878642

     Total iterative time =      0.5s



                  Occupations of the irreducible representations
                  ----------------------------------------------

                     irrep           alpha         beta
                     --------     --------     --------
                     a1                3.0          3.0
                     a2                0.0          0.0
                     e                 2.0          2.0


                       DFT Final Molecular Orbital Analysis
                       ------------------------------------

 Vector    1  Occ=2.000000D+00  E=-1.396602D+01  Symmetry=a1
              MO Center=  6.8D-18,  3.1D-18,  1.2D-01, r^2= 2.0D-02
   Bfn.  Coefficient  Atom+Function         Bfn.  Coefficient  Atom+Function  
  ----- ------------  ---------------      ----- ------------  ---------------
     1      0.558428  1 N  s                  2      0.460895  1 N  s          

 Vector    2  Occ=2.000000D+00  E=-7.820971D-01  Symmetry=a1
              MO Center=  1.7D-17,  1.0D-17, -9.0D-02, r^2= 6.9D-01
   Bfn.  Coefficient  Atom+Function         Bfn.  Coefficient  Atom+Function  
  ----- ------------  ---------------      ----- ------------  ---------------
     6      0.481821  1 N  s                 10      0.384260  1 N  s          
     2     -0.173151  1 N  s          

 Vector    3  Occ=2.000000D+00  E=-4.197595D-01  Symmetry=e
              MO Center= -1.7D-01, -9.6D-02, -4.6D-02, r^2= 9.7D-01
   Bfn.  Coefficient  Atom+Function         Bfn.  Coefficient  Atom+Function  
  ----- ------------  ---------------      ----- ------------  ---------------
     7      0.270052  1 N  px                 8     -0.205994  1 N  py         
    31     -0.190732  4 H  s                 11      0.180475  1 N  px         
     3      0.174398  1 N  px                30     -0.164051  4 H  s          
    28      0.163232  3 H  s          

 Vector    4  Occ=2.000000D+00  E=-4.197595D-01  Symmetry=e
              MO Center=  1.7D-01,  9.6D-02, -4.6D-02, r^2= 9.7D-01
   Bfn.  Coefficient  Atom+Function         Bfn.  Coefficient  Atom+Function  
  ----- ------------  ---------------      ----- ------------  ---------------
     8      0.270052  1 N  py                 7      0.205994  1 N  px         
    25      0.204362  2 H  s                 12      0.180475  1 N  py         
    24      0.175773  2 H  s                  4      0.174398  1 N  py         

 Vector    5  Occ=2.000000D+00  E=-2.197369D-01  Symmetry=a1
              MO Center=  9.8D-19,  2.3D-18,  2.8D-01, r^2= 1.0D+00
   Bfn.  Coefficient  Atom+Function         Bfn.  Coefficient  Atom+Function  
  ----- ------------  ---------------      ----- ------------  ---------------
    13      0.421375  1 N  pz                 9      0.371833  1 N  pz         
     5      0.254845  1 N  pz                 6      0.199181  1 N  s          
    10      0.172947  1 N  s                 17      0.151026  1 N  pz         

 Vector    6  Occ=0.000000D+00  E=-4.579018D-03  Symmetry=a1
              MO Center= -1.4D-16, -1.1D-16, -7.4D-01, r^2= 4.7D+00
   Bfn.  Coefficient  Atom+Function         Bfn.  Coefficient  Atom+Function  
  ----- ------------  ---------------      ----- ------------  ---------------
    14      2.529383  1 N  s                 10     -0.857157  1 N  s          
    17     -0.640897  1 N  pz                26     -0.570845  2 H  s          
    29     -0.570845  3 H  s                 32     -0.570845  4 H  s          
     6     -0.203041  1 N  s                 25      0.200912  2 H  s          
    28      0.200912  3 H  s                 31      0.200912  4 H  s          

 Vector    7  Occ=0.000000D+00  E= 7.578792D-02  Symmetry=e
              MO Center= -7.6D-03, -1.8D-02,  1.3D-01, r^2= 6.4D+00
   Bfn.  Coefficient  Atom+Function         Bfn.  Coefficient  Atom+Function  
  ----- ------------  ---------------      ----- ------------  ---------------
    15      1.060382  1 N  px                16      0.713901  1 N  py         
    11     -0.424587  1 N  px                12     -0.285853  1 N  py         
     7     -0.157019  1 N  px                26     -0.154296  2 H  s          

 Vector    8  Occ=0.000000D+00  E= 7.578792D-02  Symmetry=e
              MO Center=  7.6D-03,  1.8D-02,  1.3D-01, r^2= 6.4D+00
   Bfn.  Coefficient  Atom+Function         Bfn.  Coefficient  Atom+Function  
  ----- ------------  ---------------      ----- ------------  ---------------
    16      1.060382  1 N  py                15     -0.713901  1 N  px         
    12     -0.424587  1 N  py                11      0.285853  1 N  px         
     8     -0.157019  1 N  py         

 Vector    9  Occ=0.000000D+00  E= 1.036932D-01  Symmetry=a1
              MO Center= -1.4D-15,  1.7D-15,  4.3D-01, r^2= 6.3D+00
   Bfn.  Coefficient  Atom+Function         Bfn.  Coefficient  Atom+Function  
  ----- ------------  ---------------      ----- ------------  ---------------
    17      1.452107  1 N  pz                14     -1.042592  1 N  s          
    26      0.747777  2 H  s                 29      0.747777  3 H  s          
    32      0.747777  4 H  s                 10     -0.741765  1 N  s          
    13     -0.355877  1 N  pz         

 Vector   10  Occ=0.000000D+00  E= 1.317335D-01  Symmetry=e
              MO Center= -3.4D-02, -2.4D-02,  8.0D-02, r^2= 4.8D+00
   Bfn.  Coefficient  Atom+Function         Bfn.  Coefficient  Atom+Function  
  ----- ------------  ---------------      ----- ------------  ---------------
    32      2.618360  4 H  s                 29     -2.355097  3 H  s          
    15      1.335419  1 N  px                16     -1.111112  1 N  py         
    11      0.550172  1 N  px                12     -0.457761  1 N  py         
    26     -0.263263  2 H  s                 31      0.215439  4 H  s          
    28     -0.193777  3 H  s          

 Vector   11  Occ=0.000000D+00  E= 1.317335D-01  Symmetry=e
              MO Center=  3.4D-02,  2.4D-02,  8.0D-02, r^2= 4.8D+00
   Bfn.  Coefficient  Atom+Function         Bfn.  Coefficient  Atom+Function  
  ----- ------------  ---------------      ----- ------------  ---------------
    26      2.871427  2 H  s                 29     -1.663706  3 H  s          
    16     -1.335419  1 N  py                32     -1.207721  4 H  s          
    15     -1.111112  1 N  px                12     -0.550172  1 N  py         
    11     -0.457761  1 N  px                25      0.236261  2 H  s          

 Vector   12  Occ=0.000000D+00  E= 1.813211D-01  Symmetry=a1
              MO Center=  1.2D-15, -7.8D-16, -2.4D-01, r^2= 6.1D+00
   Bfn.  Coefficient  Atom+Function         Bfn.  Coefficient  Atom+Function  
  ----- ------------  ---------------      ----- ------------  ---------------
    14      6.562521  1 N  s                 26     -3.014032  2 H  s          
    29     -3.014032  3 H  s                 32     -3.014032  4 H  s          
    10      1.521202  1 N  s                 17     -1.121283  1 N  pz         
    13     -0.566609  1 N  pz         

 Vector   13  Occ=0.000000D+00  E= 4.592975D-01  Symmetry=e
              MO Center=  2.5D-02,  1.2D-01,  1.4D-02, r^2= 4.3D+00
   Bfn.  Coefficient  Atom+Function         Bfn.  Coefficient  Atom+Function  
  ----- ------------  ---------------      ----- ------------  ---------------
    26      3.310603  2 H  s                 32     -2.515335  4 H  s          
    15     -1.647127  1 N  px                25     -1.652436  2 H  s          
    31      1.255490  4 H  s                 16     -0.886973  1 N  py         
    11      0.817683  1 N  px                29     -0.795268  3 H  s          
    12      0.440320  1 N  py                28      0.396946  3 H  s          

 Vector   14  Occ=0.000000D+00  E= 4.592975D-01  Symmetry=e
              MO Center= -2.5D-02, -1.2D-01,  1.4D-02, r^2= 4.3D+00
   Bfn.  Coefficient  Atom+Function         Bfn.  Coefficient  Atom+Function  
  ----- ------------  ---------------      ----- ------------  ---------------
    29      3.363607  3 H  s                 32     -2.370526  4 H  s          
    28     -1.678892  3 H  s                 16      1.647127  1 N  py         
    31      1.183211  4 H  s                 26     -0.993081  2 H  s          
    15     -0.886973  1 N  px                12     -0.817683  1 N  py         
    25      0.495681  2 H  s                 11      0.440320  1 N  px         

 Vector   15  Occ=0.000000D+00  E= 5.815748D-01  Symmetry=a1
              MO Center=  4.0D-15,  5.4D-15, -6.6D-01, r^2= 3.3D+00
   Bfn.  Coefficient  Atom+Function         Bfn.  Coefficient  Atom+Function  
  ----- ------------  ---------------      ----- ------------  ---------------
    14      5.183351  1 N  s                 26     -2.833210  2 H  s          
    29     -2.833210  3 H  s                 32     -2.833210  4 H  s          
    25      1.628845  2 H  s                 28      1.628845  3 H  s          
    31      1.628845  4 H  s                 17     -1.277975  1 N  pz         
    10     -1.083678  1 N  s                 13      0.892101  1 N  pz         


 center of mass
 --------------
 x =  -0.00000000 y =  -0.00000000 z =   0.09316235

 moments of inertia (a.u.)
 ------------------
           6.039659493420           0.000000000000           0.000000000000
           0.000000000000           6.039659493420          -0.000000000000
           0.000000000000          -0.000000000000           9.625424026815

     Multipole analysis of the density
     ---------------------------------

     L   x y z        total         alpha         beta         nuclear
     -   - - -        -----         -----         ----         -------
     0   0 0 0     -0.000000     -5.000000     -5.000000     10.000000

     1   1 0 0      0.000000      0.000000      0.000000     -0.000000
     1   0 1 0     -0.000000     -0.000000     -0.000000     -0.000000
     1   0 0 1     -0.714586     -0.393118     -0.393118      0.071651

     2   2 0 0     -4.712296     -4.743821     -4.743821      4.775345
     2   1 1 0     -0.000000      0.000000      0.000000     -0.000000
     2   1 0 1     -0.000000     -0.000000     -0.000000      0.000000
     2   0 2 0     -4.712296     -4.743821     -4.743821      4.775345
     2   0 1 1      0.000000      0.000000      0.000000      0.000000
     2   0 0 2     -7.412868     -4.224789     -4.224789      1.036710


 Parallel integral file used       1 records with       0 large values



                            NWChem DFT Gradient Module
                            --------------------------


                                 H3N1 dft optimize



  charge          =   0.00
  wavefunction    = closed shell

  Rotation of axis 
  Using symmetry


                         DFT ENERGY GRADIENTS

    atom               coordinates                        gradient
                 x          y          z           x          y          z
   1 N       0.000000   0.000000   0.217898    0.000000   0.000000  -0.005125
   2 H       1.261658   1.261658  -0.484545   -0.004068  -0.004068   0.001708
   3 H       0.461799  -1.723457  -0.484545   -0.001489   0.005558   0.001708
   4 H      -1.723457   0.461799  -0.484545    0.005558  -0.001489   0.001708

                 ----------------------------------------
                 |  Time  |  1-e(secs)   |  2-e(secs)   |
                 ----------------------------------------
                 |  CPU   |       0.00   |       0.07   |
                 ----------------------------------------
                 |  WALL  |       0.00   |       0.07   |
                 ----------------------------------------

  Step       Energy      Delta E   Gmax     Grms     Xrms     Xmax   Walltime
  ---- ---------------- -------- -------- -------- -------- -------- --------
@    1     -56.49598684 -1.0D-02  0.00556  0.00335  0.07920  0.15281      2.5
                                                                    


                                 NWChem DFT Module
                                 -----------------


                                 H3N1 dft optimize


  Caching 1-el integrals 
  Rotation of axis 

            General Information
            -------------------
          SCF calculation type: DFT
          Wavefunction type:  closed shell.
          No. of atoms     :     4
          No. of electrons :    10
           Alpha electrons :     5
            Beta electrons :     5
          Charge           :     0
          Spin multiplicity:     1
          Use of symmetry is: on ; symmetry adaption is: on 
          Maximum number of iterations:  30
          AO basis - number of functions:    32
                     number of shells:    19
          Convergence on energy requested: 1.00D-06
          Convergence on density requested: 1.00D-05
          Convergence on gradient requested: 5.00D-04

              XC Information
              --------------
          PerdewBurkeErnzerhof Exchange Functional  1.000          
            Perdew 1991 LDA Correlation Functional  1.000 local    
           PerdewBurkeErnz. Correlation Functional  1.000 non-local

             Grid Information
             ----------------
          Grid used for XC integration:  medium    
          Radial quadrature: Mura-Knowles        
          Angular quadrature: Lebedev. 
          Tag              B.-S. Rad. Rad. Pts. Rad. Cut. Ang. Pts.
          ---              ---------- --------- --------- ---------
          N                   0.65       49           7.0       434
          H                   0.35       45           7.0       434
          Grid pruning is: on 
          Number of quadrature shells:    94
          Spatial weights used:  Erf1

          Convergence Information
          -----------------------
          Convergence aids based upon iterative change in 
          total energy or number of iterations. 
          Levelshifting, if invoked, occurs when the 
          HOMO/LUMO gap drops below (HL_TOL): 1.00D-02
          DIIS, if invoked, will attempt to extrapolate 
          using up to (NFOCK): 10 stored Fock matrices.

                    Damping( 0%)  Levelshifting(0.5)       DIIS
                  --------------- ------------------- ---------------
          dE  on:    start            ASAP                start   
          dE off:    2 iters         30 iters            30 iters 


      Screening Tolerance Information
      -------------------------------
          Density screening/tol_rho: 1.00D-10
          AO Gaussian exp screening on grid/accAOfunc:  14
          CD Gaussian exp screening on grid/accCDfunc:  20
          XC Gaussian exp screening on grid/accXCfunc:  20
          Schwarz screening/accCoul: 1.00D-08


 Loading old vectors from job with title :

H3N1 dft optimize


      Symmetry analysis of molecular orbitals - initial
      -------------------------------------------------

  Numbering of irreducible representations: 

     1 a1          2 a2          3 e       

  Orbital symmetries:

     1 a1          2 a1          3 e           4 e           5 a1      
     6 a1          7 e           8 e           9 a1         10 e       
    11 e          12 a1         13 e          14 e          15 a1      

   Time after variat. SCF:      2.2
   Time prior to 1st pass:      2.2

 #quartets = 6.571D+03 #integrals = 4.227D+04 #direct =  0.0% #cached =100.0%


 Integral file          = ./NH3.aoints.0
 Record size in doubles =  65536        No. of integs per rec  =  43688
 Max. records in memory =      2        Max. records in file   = 184772
 No. of bits per label  =      8        No. of bits per value  =     64


 Grid_pts file          = ./NH3.gridpts.0
 Record size in doubles =  12289        No. of grid_pts per rec  =   3070
 Max. records in memory =     16        Max. recs in file   =    985376


           Memory utilization after 1st SCF pass: 
           Heap Space remaining (MW):       32.44            32438319
          Stack Space remaining (MW):       32.77            32767696

   convergence    iter        energy       DeltaE   RMS-Dens  Diis-err    time
 ---------------- ----- ----------------- --------- --------- ---------  ------
 d= 0,ls=0.0,diis     1    -56.4960375283 -6.83D+01  8.87D-04  4.99D-04     2.4
 d= 0,ls=0.0,diis     2    -56.4959904320  4.71D-05  4.69D-04  1.05D-03     2.5
 d= 0,ls=0.0,diis     3    -56.4960968899 -1.06D-04  9.77D-05  3.06D-05     2.5
 d= 0,ls=0.0,diis     4    -56.4960997628 -2.87D-06  2.48D-05  5.54D-07     2.6
 d= 0,ls=0.0,diis     5    -56.4960998166 -5.37D-08  1.83D-06  4.88D-09     2.7


         Total DFT energy =      -56.496099816564
      One electron energy =      -99.356258616222
           Coulomb energy =       38.971663476400
    Exchange-Corr. energy =       -7.928063141562
 Nuclear repulsion energy =       11.816558464820

 Numeric. integr. density =        9.999998871628

     Total iterative time =      0.5s



                  Occupations of the irreducible representations
                  ----------------------------------------------

                     irrep           alpha         beta
                     --------     --------     --------
                     a1                3.0          3.0
                     a2                0.0          0.0
                     e                 2.0          2.0


                       DFT Final Molecular Orbital Analysis
                       ------------------------------------

 Vector    1  Occ=2.000000D+00  E=-1.396873D+01  Symmetry=a1
              MO Center=  1.6D-18, -2.3D-18,  1.2D-01, r^2= 2.0D-02
   Bfn.  Coefficient  Atom+Function         Bfn.  Coefficient  Atom+Function  
  ----- ------------  ---------------      ----- ------------  ---------------
     1      0.558436  1 N  s                  2      0.460914  1 N  s          

 Vector    2  Occ=2.000000D+00  E=-7.787884D-01  Symmetry=a1
              MO Center=  2.2D-16,  2.1D-16, -8.7D-02, r^2= 6.9D-01
   Bfn.  Coefficient  Atom+Function         Bfn.  Coefficient  Atom+Function  
  ----- ------------  ---------------      ----- ------------  ---------------
     6      0.481891  1 N  s                 10      0.386680  1 N  s          
     2     -0.173162  1 N  s          

 Vector    3  Occ=2.000000D+00  E=-4.174371D-01  Symmetry=e
              MO Center=  4.7D-02,  1.9D-01, -4.5D-02, r^2= 9.9D-01
   Bfn.  Coefficient  Atom+Function         Bfn.  Coefficient  Atom+Function  
  ----- ------------  ---------------      ----- ------------  ---------------
     7      0.294913  1 N  px                25      0.199843  2 H  s          
    11      0.198409  1 N  px                 3      0.190402  1 N  px         
    24      0.170196  2 H  s                  8      0.166441  1 N  py         

 Vector    4  Occ=2.000000D+00  E=-4.174371D-01  Symmetry=e
              MO Center= -4.7D-02, -1.9D-01, -4.5D-02, r^2= 9.9D-01
   Bfn.  Coefficient  Atom+Function         Bfn.  Coefficient  Atom+Function  
  ----- ------------  ---------------      ----- ------------  ---------------
     8      0.294913  1 N  py                28     -0.200894  3 H  s          
    12      0.198409  1 N  py                 4      0.190402  1 N  py         
    27     -0.171091  3 H  s                  7     -0.166441  1 N  px         

 Vector    5  Occ=2.000000D+00  E=-2.198300D-01  Symmetry=a1
              MO Center=  4.3D-18, -3.6D-17,  2.8D-01, r^2= 1.0D+00
   Bfn.  Coefficient  Atom+Function         Bfn.  Coefficient  Atom+Function  
  ----- ------------  ---------------      ----- ------------  ---------------
    13      0.419591  1 N  pz                 9      0.370841  1 N  pz         
     5      0.254648  1 N  pz                 6      0.200287  1 N  s          
    10      0.178138  1 N  s                 17      0.152250  1 N  pz         

 Vector    6  Occ=0.000000D+00  E=-5.343535D-03  Symmetry=a1
              MO Center=  3.1D-16,  5.0D-16, -7.2D-01, r^2= 4.7D+00
   Bfn.  Coefficient  Atom+Function         Bfn.  Coefficient  Atom+Function  
  ----- ------------  ---------------      ----- ------------  ---------------
    14      2.471173  1 N  s                 10     -0.876790  1 N  s          
    17     -0.629043  1 N  pz                26     -0.543821  2 H  s          
    29     -0.543821  3 H  s                 32     -0.543821  4 H  s          
     6     -0.203452  1 N  s                 25      0.201673  2 H  s          
    28      0.201673  3 H  s                 31      0.201673  4 H  s          

 Vector    7  Occ=0.000000D+00  E= 7.544618D-02  Symmetry=e
              MO Center= -8.5D-04, -5.3D-03,  1.1D-01, r^2= 6.3D+00
   Bfn.  Coefficient  Atom+Function         Bfn.  Coefficient  Atom+Function  
  ----- ------------  ---------------      ----- ------------  ---------------
    16      1.106362  1 N  py                15     -0.564042  1 N  px         
    12     -0.470920  1 N  py                11      0.240083  1 N  px         
     8     -0.172864  1 N  py         

 Vector    8  Occ=0.000000D+00  E= 7.544618D-02  Symmetry=e
              MO Center=  8.5D-04,  5.3D-03,  1.1D-01, r^2= 6.3D+00
   Bfn.  Coefficient  Atom+Function         Bfn.  Coefficient  Atom+Function  
  ----- ------------  ---------------      ----- ------------  ---------------
    15      1.106362  1 N  px                16      0.564042  1 N  py         
    11     -0.470920  1 N  px                12     -0.240083  1 N  py         
     7     -0.172864  1 N  px         

 Vector    9  Occ=0.000000D+00  E= 1.032154D-01  Symmetry=a1
              MO Center= -1.1D-14, -6.9D-17,  3.9D-01, r^2= 6.4D+00
   Bfn.  Coefficient  Atom+Function         Bfn.  Coefficient  Atom+Function  
  ----- ------------  ---------------      ----- ------------  ---------------
    17      1.473204  1 N  pz                14     -1.142924  1 N  s          
    26      0.790545  2 H  s                 29      0.790545  3 H  s          
    32      0.790545  4 H  s                 10     -0.746849  1 N  s          
    13     -0.349018  1 N  pz         

 Vector   10  Occ=0.000000D+00  E= 1.290379D-01  Symmetry=e
              MO Center= -4.4D-03, -1.4D-02,  1.0D-01, r^2= 4.8D+00
   Bfn.  Coefficient  Atom+Function         Bfn.  Coefficient  Atom+Function  
  ----- ------------  ---------------      ----- ------------  ---------------
    29      2.717085  3 H  s                 32     -2.052366  4 H  s          
    16      1.493814  1 N  py                15     -0.912854  1 N  px         
    26     -0.664719  2 H  s                 12      0.590704  1 N  py         
    11     -0.360973  1 N  px                28      0.224474  3 H  s          
    31     -0.169558  4 H  s          

 Vector   11  Occ=0.000000D+00  E= 1.290379D-01  Symmetry=e
              MO Center=  4.4D-03,  1.4D-02,  1.0D-01, r^2= 4.8D+00
   Bfn.  Coefficient  Atom+Function         Bfn.  Coefficient  Atom+Function  
  ----- ------------  ---------------      ----- ------------  ---------------
    26      2.753644  2 H  s                 32     -1.952485  4 H  s          
    15     -1.493814  1 N  px                16     -0.912854  1 N  py         
    29     -0.801158  3 H  s                 11     -0.590704  1 N  px         
    12     -0.360973  1 N  py                25      0.227494  2 H  s          
    31     -0.161306  4 H  s          

 Vector   12  Occ=0.000000D+00  E= 1.788037D-01  Symmetry=a1
              MO Center=  9.9D-15,  5.3D-15, -2.1D-01, r^2= 6.1D+00
   Bfn.  Coefficient  Atom+Function         Bfn.  Coefficient  Atom+Function  
  ----- ------------  ---------------      ----- ------------  ---------------
    14      6.544014  1 N  s                 26     -2.988542  2 H  s          
    29     -2.988542  3 H  s                 32     -2.988542  4 H  s          
    10      1.449275  1 N  s                 17     -1.114305  1 N  pz         
    13     -0.568079  1 N  pz         

 Vector   13  Occ=0.000000D+00  E= 4.560996D-01  Symmetry=e
              MO Center= -7.4D-02, -1.3D-01,  1.9D-04, r^2= 4.3D+00
   Bfn.  Coefficient  Atom+Function         Bfn.  Coefficient  Atom+Function  
  ----- ------------  ---------------      ----- ------------  ---------------
    29      3.184903  3 H  s                 32     -2.751969  4 H  s          
    28     -1.574940  3 H  s                 16      1.471454  1 N  py         
    31      1.360854  4 H  s                 15     -1.141431  1 N  px         
    12     -0.700511  1 N  py                11      0.543398  1 N  px         
    26     -0.432933  2 H  s                 25      0.214086  2 H  s          

 Vector   14  Occ=0.000000D+00  E= 4.560996D-01  Symmetry=e
              MO Center=  7.4D-02,  1.3D-01,  1.9D-04, r^2= 4.3D+00
   Bfn.  Coefficient  Atom+Function         Bfn.  Coefficient  Atom+Function  
  ----- ------------  ---------------      ----- ------------  ---------------
    26      3.427655  2 H  s                 32     -2.088759  4 H  s          
    25     -1.694981  2 H  s                 15     -1.471454  1 N  px         
    29     -1.338896  3 H  s                 16     -1.141431  1 N  py         
    31      1.032895  4 H  s                 11      0.700511  1 N  px         
    28      0.662087  3 H  s                 12      0.543398  1 N  py         

 Vector   15  Occ=0.000000D+00  E= 5.785289D-01  Symmetry=a1
              MO Center=  7.0D-15,  5.3D-15, -6.4D-01, r^2= 3.4D+00
   Bfn.  Coefficient  Atom+Function         Bfn.  Coefficient  Atom+Function  
  ----- ------------  ---------------      ----- ------------  ---------------
    14      5.304182  1 N  s                 26     -2.908811  2 H  s          
    29     -2.908811  3 H  s                 32     -2.908811  4 H  s          
    25      1.601030  2 H  s                 28      1.601030  3 H  s          
    31      1.601030  4 H  s                 17     -1.299675  1 N  pz         
    10     -0.935732  1 N  s                 13      0.827006  1 N  pz         


 center of mass
 --------------
 x =   0.00000000 y =   0.00000000 z =   0.09795536

 moments of inertia (a.u.)
 ------------------
           6.151473434734           0.000000000000           0.000000000000
           0.000000000000           6.151473434734           0.000000000000
           0.000000000000           0.000000000000           9.790202214504

     Multipole analysis of the density
     ---------------------------------

     L   x y z        total         alpha         beta         nuclear
     -   - - -        -----         -----         ----         -------
     0   0 0 0     -0.000000     -5.000000     -5.000000     10.000000

     1   1 0 0     -0.000000     -0.000000     -0.000000      0.000000
     1   0 1 0     -0.000000     -0.000000     -0.000000      0.000000
     1   0 0 1     -0.714280     -0.411805     -0.411805      0.109330

     2   2 0 0     -4.718195     -4.787645     -4.787645      4.857094
     2   1 1 0     -0.000000     -0.000000     -0.000000      0.000000
     2   1 0 1      0.000000      0.000000      0.000000     -0.000000
     2   0 2 0     -4.718195     -4.787645     -4.787645      4.857094
     2   0 1 1      0.000000      0.000000      0.000000     -0.000000
     2   0 0 2     -7.438681     -4.250461     -4.250461      1.062242


 Parallel integral file used       1 records with       0 large values

 Line search: 
     step= 1.00 grad=-3.1D-04 hess= 1.9D-04 energy=    -56.496100 mode=downhill
 new step= 0.79                   predicted energy=    -56.496108

          --------
          Step   2
          --------


                         Geometry "geometry" -> "geometry"
                         ---------------------------------

 Output coordinates in angstroms (scale by  1.889725989 to convert to a.u.)

  No.       Tag          Charge          X              Y              Z
 ---- ---------------- ---------- -------------- -------------- --------------
    1 N                    7.0000     0.00000000     0.00000000     0.11794387
    2 H                    1.0000     0.67215653     0.67215653    -0.25728941
    3 H                    1.0000     0.24602636    -0.91818289    -0.25728941
    4 H                    1.0000    -0.91818289     0.24602636    -0.25728941

      Atomic Mass 
      ----------- 

      N                 14.003070
      H                  1.007825


 Effective nuclear repulsion energy (a.u.)      11.8382211401

            Nuclear Dipole moment (a.u.) 
            ----------------------------
        X                 Y               Z
 ---------------- ---------------- ----------------
     0.0000000000    -0.0000000000     0.1015517202

      Symmetry information
      --------------------

 Group name             C3v       
 Group number             17
 Group order               6
 No. of unique centers     2

      Symmetry unique atoms

     1    2


                                 NWChem DFT Module
                                 -----------------


                                 H3N1 dft optimize


  Caching 1-el integrals 
  Rotation of axis 

            General Information
            -------------------
          SCF calculation type: DFT
          Wavefunction type:  closed shell.
          No. of atoms     :     4
          No. of electrons :    10
           Alpha electrons :     5
            Beta electrons :     5
          Charge           :     0
          Spin multiplicity:     1
          Use of symmetry is: on ; symmetry adaption is: on 
          Maximum number of iterations:  30
          AO basis - number of functions:    32
                     number of shells:    19
          Convergence on energy requested: 1.00D-06
          Convergence on density requested: 1.00D-05
          Convergence on gradient requested: 5.00D-04

              XC Information
              --------------
          PerdewBurkeErnzerhof Exchange Functional  1.000          
[...]



 vib:animation  F

 Task  times  cpu:       21.9s     wall:       22.7s


                                NWChem Input Module
                                -------------------


                                  H3N1 dft energy
                                  ---------------
  library name resolved from: environment
  library file name is: </Users/chenzheng/Google Drive/nano266/resources/nwchem_basis/>
  
                      Basis "ao basis" -> "" (cartesian)
                      -----
  H (Hydrogen)
  ------------
            Exponent  Coefficients 
       -------------- ---------------------------------------------------------
  1 S  3.38650000E+01  0.025494
  1 S  5.09479000E+00  0.190373
  1 S  1.15879000E+00  0.852161

  2 S  3.25840000E-01  1.000000

  3 S  1.02741000E-01  1.000000

  N (Nitrogen)
  ------------
            Exponent  Coefficients 
       -------------- ---------------------------------------------------------
  1 S  6.29348000E+03  0.001970
  1 S  9.49044000E+02  0.014961
  1 S  2.18776000E+02  0.073501
  1 S  6.36916000E+01  0.248937
  1 S  1.88282000E+01  0.602460
  1 S  2.72023000E+00  0.256202

  2 S  3.06331000E+01  0.111906
  2 S  7.02614000E+00  0.921666
  2 S  2.11205000E+00 -0.002569

  3 P  3.06331000E+01  0.038312
  3 P  7.02614000E+00  0.237403
  3 P  2.11205000E+00  0.817592

  4 S  6.84009000E-01  1.000000

  5 P  6.84009000E-01  1.000000

  6 S  2.00878000E-01  1.000000

  7 P  2.00878000E-01  1.000000

  8 S  6.39000000E-02  1.000000

  9 P  6.39000000E-02  1.000000

 10 D  9.13000000E-01  1.000000



 Summary of "ao basis" -> "" (cartesian)
 ------------------------------------------------------------------------------
       Tag                 Description            Shells   Functions and Types
 ---------------- ------------------------------  ------  ---------------------
 H                          6-311+G*                 3        3   3s
 N                          6-311+G*                10       23   5s4p1d


  xc_inp: hfexch multiplicative factor not found.

                                 NWChem DFT Module
                                 -----------------


                                  H3N1 dft energy


  Caching 1-el integrals 
  Rotation of axis 
  itol2e modified to match energy
  convergence criterion.

            General Information
            -------------------
          SCF calculation type: DFT
          Wavefunction type:  closed shell.
          No. of atoms     :     4
          No. of electrons :    10
           Alpha electrons :     5
            Beta electrons :     5
          Charge           :     0
          Spin multiplicity:     1
          Use of symmetry is: on ; symmetry adaption is: on 
          Maximum number of iterations:  30
          AO basis - number of functions:    32
                     number of shells:    19
          Convergence on energy requested: 1.00D-07
          Convergence on density requested: 1.00D-05
          Convergence on gradient requested: 5.00D-04

              XC Information
              --------------
                     Hartree-Fock (Exact) Exchange  1.000          

          Convergence Information
          -----------------------
          Convergence aids based upon iterative change in 
          total energy or number of iterations. 
          Levelshifting, if invoked, occurs when the 
          HOMO/LUMO gap drops below (HL_TOL): 1.00D-02
          DIIS, if invoked, will attempt to extrapolate 
          using up to (NFOCK): 10 stored Fock matrices.

                    Damping( 0%)  Levelshifting(0.5)       DIIS
                  --------------- ------------------- ---------------
          dE  on:    start            ASAP                start   
          dE off:    2 iters         30 iters            30 iters 


      Screening Tolerance Information
      -------------------------------
          Density screening/tol_rho: 1.00D-11
          AO Gaussian exp screening on grid/accAOfunc:  16
          CD Gaussian exp screening on grid/accCDfunc:  20
          XC Gaussian exp screening on grid/accXCfunc:  20
          Schwarz screening/accCoul: 1.00D-08


 Loading old vectors from job with title :

H3N1 dft freq


      Symmetry analysis of molecular orbitals - initial
      -------------------------------------------------

  Numbering of irreducible representations: 

     1 a1          2 a2          3 e       

  Orbital symmetries:

     1 a1          2 a1          3 e           4 e           5 a1      
     6 a1          7 e           8 e           9 a1         10 e       
    11 e          12 a1         13 e          14 e          15 a1      

   Time after variat. SCF:     26.6
   Time prior to 1st pass:     26.6

 #quartets = 6.571D+03 #integrals = 4.227D+04 #direct =  0.0% #cached =100.0%


 Integral file          = ./NH3.aoints.0
 Record size in doubles =  65536        No. of integs per rec  =  43688
 Max. records in memory =      2        Max. records in file   = 184763
 No. of bits per label  =      8        No. of bits per value  =     64


           Memory utilization after 1st SCF pass: 
           Heap Space remaining (MW):       32.64            32635013
          Stack Space remaining (MW):       32.77            32767696

   convergence    iter        energy       DeltaE   RMS-Dens  Diis-err    time
 ---------------- ----- ----------------- --------- --------- ---------  ------
 d= 0,ls=0.0,diis     1    -56.1951758727 -6.80D+01  5.01D-03  2.45D-01    26.6
 d= 0,ls=0.0,diis     2    -56.2032832319 -8.11D-03  1.53D-03  2.88D-03    26.6
 d= 0,ls=0.0,diis     3    -56.2035497348 -2.67D-04  3.20D-04  6.37D-04    26.7
 d= 0,ls=0.0,diis     4    -56.2036139167 -6.42D-05  2.25D-04  1.70D-05    26.7
 d= 0,ls=0.0,diis     5    -56.2036204548 -6.54D-06  7.30D-05  1.67D-06    26.7
 d= 0,ls=0.0,diis     6    -56.2036211795 -7.25D-07  9.88D-06  4.40D-08    26.7
 d= 0,ls=0.0,diis     7    -56.2036211965 -1.71D-08  2.60D-06  1.02D-09    26.7


         Total DFT energy =      -56.203621196517
      One electron energy =      -99.342928588134
           Coulomb energy =       38.948283664278
    Exchange-Corr. energy =       -7.647577634657
 Nuclear repulsion energy =       11.838601361997

 Numeric. integr. density =        0.000000000000

     Total iterative time =      0.1s



                  Occupations of the irreducible representations
                  ----------------------------------------------

                     irrep           alpha         beta
                     --------     --------     --------
                     a1                3.0          3.0
                     a2                0.0          0.0
                     e                 2.0          2.0


                       DFT Final Molecular Orbital Analysis
                       ------------------------------------

 Vector    1  Occ=2.000000D+00  E=-1.554797D+01  Symmetry=a1
              MO Center=  4.8D-22,  4.2D-22,  1.2D-01, r^2= 2.0D-02
   Bfn.  Coefficient  Atom+Function         Bfn.  Coefficient  Atom+Function  
  ----- ------------  ---------------      ----- ------------  ---------------
     1      0.557732  1 N  s                  2      0.467996  1 N  s          

 Vector    2  Occ=2.000000D+00  E=-1.139327D+00  Symmetry=a1
              MO Center= -1.1D-16, -5.5D-17, -6.0D-02, r^2= 7.0D-01
   Bfn.  Coefficient  Atom+Function         Bfn.  Coefficient  Atom+Function  
  ----- ------------  ---------------      ----- ------------  ---------------
     6      0.474714  1 N  s                 10      0.401718  1 N  s          
     2     -0.175326  1 N  s          

 Vector    3  Occ=2.000000D+00  E=-6.293896D-01  Symmetry=e
              MO Center= -2.0D-01, -2.2D-02, -4.7D-02, r^2= 9.7D-01
   Bfn.  Coefficient  Atom+Function         Bfn.  Coefficient  Atom+Function  
  ----- ------------  ---------------      ----- ------------  ---------------
     7      0.312547  1 N  px                11      0.213162  1 N  px         
    31     -0.214039  4 H  s                  3      0.182583  1 N  px         
    30     -0.165515  4 H  s                  8     -0.150588  1 N  py         

 Vector    4  Occ=2.000000D+00  E=-6.293896D-01  Symmetry=e
              MO Center=  2.0D-01,  2.2D-02, -4.7D-02, r^2= 9.7D-01
   Bfn.  Coefficient  Atom+Function         Bfn.  Coefficient  Atom+Function  
  ----- ------------  ---------------      ----- ------------  ---------------
     8      0.312547  1 N  py                12      0.213162  1 N  py         
    25      0.205633  2 H  s                  4      0.182583  1 N  py         
    28     -0.165093  3 H  s                 24      0.159015  2 H  s          
     7      0.150588  1 N  px         

 Vector    5  Occ=2.000000D+00  E=-4.246885D-01  Symmetry=a1
              MO Center=  6.7D-18,  3.0D-17,  2.6D-01, r^2= 9.5D-01
   Bfn.  Coefficient  Atom+Function         Bfn.  Coefficient  Atom+Function  
  ----- ------------  ---------------      ----- ------------  ---------------
    13      0.439970  1 N  pz                 9      0.388134  1 N  pz         
     5      0.246831  1 N  pz                 6      0.181581  1 N  s          
    10      0.164466  1 N  s          

 Vector    6  Occ=0.000000D+00  E= 9.960770D-02  Symmetry=a1
              MO Center= -4.3D-15, -8.5D-15, -1.1D+00, r^2= 5.4D+00
   Bfn.  Coefficient  Atom+Function         Bfn.  Coefficient  Atom+Function  
  ----- ------------  ---------------      ----- ------------  ---------------
    14      3.957681  1 N  s                 26     -1.253238  2 H  s          
    29     -1.253238  3 H  s                 32     -1.253238  4 H  s          
    17     -1.025361  1 N  pz                10     -0.592371  1 N  s          
    25      0.182326  2 H  s                 28      0.182326  3 H  s          
    31      0.182326  4 H  s          

 Vector    7  Occ=0.000000D+00  E= 1.617939D-01  Symmetry=e
              MO Center=  2.5D-02,  4.2D-01,  4.5D-01, r^2= 7.3D+00
   Bfn.  Coefficient  Atom+Function         Bfn.  Coefficient  Atom+Function  
  ----- ------------  ---------------      ----- ------------  ---------------
    16      1.720217  1 N  py                29      1.188635  3 H  s          
    15     -0.774091  1 N  px                32     -0.761550  4 H  s          
    26     -0.427085  2 H  s                 12     -0.365007  1 N  py         
    11      0.164252  1 N  px         

 Vector    8  Occ=0.000000D+00  E= 1.617939D-01  Symmetry=e
              MO Center= -2.5D-02, -4.2D-01,  4.5D-01, r^2= 7.3D+00
   Bfn.  Coefficient  Atom+Function         Bfn.  Coefficient  Atom+Function  
  ----- ------------  ---------------      ----- ------------  ---------------
    15      1.720217  1 N  px                26     -1.125940  2 H  s          
    32      0.932836  4 H  s                 16      0.774091  1 N  py         
    11     -0.365007  1 N  px                29      0.193104  3 H  s          
    12     -0.164252  1 N  py         

 Vector    9  Occ=0.000000D+00  E= 1.971225D-01  Symmetry=a1
              MO Center= -6.8D-16,  1.9D-15,  7.8D-01, r^2= 6.1D+00
   Bfn.  Coefficient  Atom+Function         Bfn.  Coefficient  Atom+Function  
  ----- ------------  ---------------      ----- ------------  ---------------
    17      1.382816  1 N  pz                10     -0.755443  1 N  s          
    26      0.561700  2 H  s                 29      0.561700  3 H  s          
    32      0.561700  4 H  s                 14     -0.470070  1 N  s          
    13     -0.467221  1 N  pz         

 Vector   10  Occ=0.000000D+00  E= 2.707748D-01  Symmetry=e
              MO Center= -4.8D-01, -3.7D-02, -2.6D-01, r^2= 4.5D+00
   Bfn.  Coefficient  Atom+Function         Bfn.  Coefficient  Atom+Function  
  ----- ------------  ---------------      ----- ------------  ---------------
    32      3.206873  4 H  s                 29     -2.077954  3 H  s          
    15      1.345768  1 N  px                26     -1.128919  2 H  s          
    11      0.711965  1 N  px                16     -0.618868  1 N  py         
    12     -0.327406  1 N  py         

 Vector   11  Occ=0.000000D+00  E= 2.707748D-01  Symmetry=e
              MO Center=  4.8D-01,  3.7D-02, -2.6D-01, r^2= 4.5D+00
   Bfn.  Coefficient  Atom+Function         Bfn.  Coefficient  Atom+Function  
  ----- ------------  ---------------      ----- ------------  ---------------
    26      3.051197  2 H  s                 29     -2.503271  3 H  s          
    16     -1.345768  1 N  py                12     -0.711965  1 N  py         
    15     -0.618868  1 N  px                32     -0.547926  4 H  s          
    11     -0.327406  1 N  px         

 Vector   12  Occ=0.000000D+00  E= 3.089348D-01  Symmetry=a1
              MO Center=  1.3D-14,  3.7D-14, -2.9D-01, r^2= 5.8D+00
   Bfn.  Coefficient  Atom+Function         Bfn.  Coefficient  Atom+Function  
  ----- ------------  ---------------      ----- ------------  ---------------
    14      6.650784  1 N  s                 26     -3.284324  2 H  s          
    29     -3.284324  3 H  s                 32     -3.284324  4 H  s          
    10      1.717098  1 N  s                 17     -1.162780  1 N  pz         
    13     -0.585338  1 N  pz         

 Vector   13  Occ=0.000000D+00  E= 6.501391D-01  Symmetry=e
              MO Center=  4.0D-02,  6.4D-03,  8.1D-02, r^2= 3.5D+00
   Bfn.  Coefficient  Atom+Function         Bfn.  Coefficient  Atom+Function  
  ----- ------------  ---------------      ----- ------------  ---------------
    26      2.733009  2 H  s                 29     -2.134502  3 H  s          
    25     -1.762702  2 H  s                 16     -1.445248  1 N  py         
    28      1.376684  3 H  s                 12      1.150510  1 N  py         
    15     -0.737115  1 N  px                32     -0.598508  4 H  s          
    11      0.586791  1 N  px                31      0.386018  4 H  s          

 Vector   14  Occ=0.000000D+00  E= 6.501391D-01  Symmetry=e
              MO Center= -4.0D-02, -6.4D-03,  8.1D-02, r^2= 3.5D+00
   Bfn.  Coefficient  Atom+Function         Bfn.  Coefficient  Atom+Function  
  ----- ------------  ---------------      ----- ------------  ---------------
    32      2.810259  4 H  s                 29     -1.923453  3 H  s          
    31     -1.812525  4 H  s                 15      1.445248  1 N  px         
    28      1.240564  3 H  s                 11     -1.150510  1 N  px         
    26     -0.886806  2 H  s                 16     -0.737115  1 N  py         
    12      0.586791  1 N  py                25      0.571961  2 H  s          

 Vector   15  Occ=0.000000D+00  E= 7.944421D-01  Symmetry=a1
              MO Center= -8.4D-15,  7.7D-15, -6.1D-01, r^2= 2.9D+00
   Bfn.  Coefficient  Atom+Function         Bfn.  Coefficient  Atom+Function  
  ----- ------------  ---------------      ----- ------------  ---------------
    14      4.416046  1 N  s                 26     -2.461043  2 H  s          
    29     -2.461043  3 H  s                 32     -2.461043  4 H  s          
    25      1.727047  2 H  s                 28      1.727047  3 H  s          
    31      1.727047  4 H  s                 10     -1.441335  1 N  s          
    17     -1.127147  1 N  pz                13      1.031378  1 N  pz         


 center of mass
 --------------
 x =  -0.00000000 y =  -0.00000000 z =   0.09529061

 moments of inertia (a.u.)
 ------------------
           6.123327052253           0.000000000000           0.000000000000
           0.000000000000           6.123327052253          -0.000000000000
           0.000000000000          -0.000000000000           9.766713970303

     Multipole analysis of the density
     ---------------------------------

     L   x y z        total         alpha         beta         nuclear
     -   - - -        -----         -----         ----         -------
     0   0 0 0     -0.000000     -5.000000     -5.000000     10.000000

     1   1 0 0     -0.000000     -0.000000     -0.000000      0.000000
     1   0 1 0     -0.000000     -0.000000     -0.000000     -0.000000
     1   0 0 1     -0.744235     -0.416309     -0.416309      0.088382

     2   2 0 0     -4.577559     -4.711500     -4.711500      4.845441
     2   1 1 0     -0.000000     -0.000000     -0.000000     -0.000000
     2   1 0 1     -0.000000     -0.000000     -0.000000      0.000000
     2   0 2 0     -4.577559     -4.711500     -4.711500      4.845441
     2   0 1 1      0.000000      0.000000      0.000000      0.000000
     2   0 0 2     -7.140081     -4.094028     -4.094028      1.047976


 Parallel integral file used       1 records with       0 large values


 Task  times  cpu:        0.1s     wall:        0.1s
 Summary of allocated global arrays
-----------------------------------
  No active global arrays



                         GA Statistics for process    0
                         ------------------------------

       create   destroy   get      put      acc     scatter   gather  read&inc
calls: 2116     2116     3.79e+05 3.11e+04 1.76e+05  314        0     4540     
number of processes/call 1.00e+00 1.00e+00 1.00e+00 1.00e+00 0.00e+00
bytes total:             1.90e+08 1.64e+07 1.12e+08 2.23e+06 0.00e+00 3.63e+04
bytes remote:            0.00e+00 0.00e+00 0.00e+00 0.00e+00 0.00e+00 0.00e+00
Max memory consumed for GA by this process: 892672 bytes
MA_summarize_allocated_blocks: starting scan ...
MA_summarize_allocated_blocks: scan completed: 0 heap blocks, 0 stack blocks
MA usage statistics:

	allocation statistics:
					      heap	     stack
					      ----	     -----
	current number of blocks	         0	         0
	maximum number of blocks	        26	        52
	current total bytes		         0	         0
	maximum total bytes		   8470208	  77747440
	maximum total K-bytes		      8471	     77748
	maximum total M-bytes		         9	        78


                                NWChem Input Module
                                -------------------





                                     CITATION
                                     --------
                Please cite the following reference when publishing
                           results obtained with NWChem:

                 M. Valiev, E.J. Bylaska, N. Govind, K. Kowalski,
              T.P. Straatsma, H.J.J. van Dam, D. Wang, J. Nieplocha,
                        E. Apra, T.L. Windus, W.A. de Jong
                 "NWChem: a comprehensive and scalable open-source
                  solution for large scale molecular simulations"
                      Comput. Phys. Commun. 181, 1477 (2010)
                           doi:10.1016/j.cpc.2010.04.018

                              AUTHORS & CONTRIBUTORS
                              ----------------------
          E. Apra, E. J. Bylaska, W. A. de Jong, N. Govind, K. Kowalski,
       T. P. Straatsma, M. Valiev, H. J. J. van Dam, D. Wang, T. L. Windus,
        J. Hammond, J. Autschbach, K. Bhaskaran-Nair, J. Brabec, K. Lopata,
     F. Aquino, S. Hirata, M. T. Hackler, J. Mullin, P. Nichols, R. Peverati,
    J. Pittner, Y. Zhao, P.-D. Fan, R. J. Harrison, M. Dupuis, D. Silverstein,
    D. M. A. Smith, J. Nieplocha, V. Tipparaju, M. Krishnan, B. E. Van Kuiken,
        A. Vazquez-Mayagoitia, L. Jensen, M. Swart, Q. Wu, T. Van Voorhis,
     A. A. Auer, M. Nooijen, L. D. Crosby, E. Brown, G. Cisneros, G. I. Fann,
     H. Fruchtl, J. Garza, K. Hirao, R. Kendall, J. A. Nichols, K. Tsemekhman,
      K. Wolinski, J. Anchell, D. Bernholdt, P. Borowski, T. Clark, D. Clerc,
      H. Dachsel, M. Deegan, K. Dyall, D. Elwood, E. Glendening, M. Gutowski,
      A. Hess, J. Jaffe, B. Johnson, J. Ju, R. Kobayashi, R. Kutteh, Z. Lin,
   R. Littlefield, X. Long, B. Meng, T. Nakajima, S. Niu, L. Pollack, M. Rosing,
   K. Glaesemann, G. Sandrone, M. Stave, H. Taylor, G. Thomas, J. H. van Lenthe,
                                A. Wong, Z. Zhang.

 Total times  cpu:       26.7s     wall:       28.1s
