 argument  1 = N2.nw
                                         
                                         


              Northwest Computational Chemistry Package (NWChem) 6.3
              ------------------------------------------------------


                    Environmental Molecular Sciences Laboratory
                       Pacific Northwest National Laboratory
                                Richland, WA 99352

                              Copyright (c) 1994-2012
                       Pacific Northwest National Laboratory
                            Battelle Memorial Institute

             NWChem is an open-source computational chemistry package
                        distributed under the terms of the
                      Educational Community License (ECL) 2.0
             A copy of the license is included with this distribution
                              in the LICENSE.TXT file

                                  ACKNOWLEDGMENT
                                  --------------

            This software and its documentation were developed at the
            EMSL at Pacific Northwest National Laboratory, a multiprogram
            national laboratory, operated for the U.S. Department of Energy
            by Battelle under Contract Number DE-AC05-76RL01830. Support
            for this work was provided by the Department of Energy Office
            of Biological and Environmental Research, Office of Basic
            Energy Sciences, and the Office of Advanced Scientific Computing.


           Job information
           ---------------

    hostname        = ChensPro.local
    program         = nwchem
    date            = Wed Apr 15 10:30:43 2015

    compiled        = Sat_Jul_20_13:52:43_2013
    source          = /Users/shyuepingong/Software/nwchem-6.3
    nwchem branch   = 6.3
    nwchem revision = 24277
    ga revision     = 10379
    input           = N2.nw
    prefix          = N2.
    data base       = ./N2.db
    status          = startup
    nproc           =        1
    time left       =     -1s



           Memory information
           ------------------

    heap     =   32768001 doubles =    250.0 Mbytes
    stack    =   32768001 doubles =    250.0 Mbytes
    global   =   65536000 doubles =    500.0 Mbytes (distinct from heap & stack)
    total    =  131072002 doubles =   1000.0 Mbytes
    verify   = yes
    hardfail = no 


           Directory information
           ---------------------

  0 permanent = .
  0 scratch   = .




                                NWChem Input Module
                                -------------------



 Scaling coordinates for geometry "geometry" by  1.889725989
 (inverse scale =  0.529177249)

 ORDER OF PRIMARY AXIS IS BEING SET TO 4
 D4H symmetry detected

          ------
          auto-z
          ------


                             Geometry "geometry" -> ""
                             -------------------------

 Output coordinates in angstroms (scale by  1.889725989 to convert to a.u.)

  No.       Tag          Charge          X              Y              Z
 ---- ---------------- ---------- -------------- -------------- --------------
    1 N                    7.0000     0.00000000     0.00000000    -0.55000000
    2 N                    7.0000     0.00000000     0.00000000     0.55000000

      Atomic Mass 
      ----------- 

      N                 14.003070


 Effective nuclear repulsion energy (a.u.)      23.5724410918

            Nuclear Dipole moment (a.u.) 
            ----------------------------
        X                 Y               Z
 ---------------- ---------------- ----------------
     0.0000000000     0.0000000000     0.0000000000

      Symmetry information
      --------------------

 Group name             D4h       
 Group number             28
 Group order              16
 No. of unique centers     1

      Symmetry unique atoms

     1



                                Z-matrix (autoz)
                                -------- 

 Units are Angstrom for bonds and degrees for angles

      Type          Name      I     J     K     L     M      Value
      ----------- --------  ----- ----- ----- ----- ----- ----------
    1 Stretch                  1     2                       1.10000


            XYZ format geometry
            -------------------
     2
 geometry
 N                     0.00000000     0.00000000    -0.55000000
 N                     0.00000000     0.00000000     0.55000000

 ==============================================================================
                                internuclear distances
 ------------------------------------------------------------------------------
       center one      |      center two      | atomic units |  angstroms
 ------------------------------------------------------------------------------
    2 N                |   1 N                |     2.07870  |     1.10000
 ------------------------------------------------------------------------------
                         number of included internuclear distances:          1
 ==============================================================================



                                  N2 dft optimize
                                  ---------------
  library name resolved from: environment
  library file name is: </Users/chenzheng/Google Drive/nano266/resources/nwchem_basis/>
  
                      Basis "ao basis" -> "" (cartesian)
                      -----
  N (Nitrogen)
  ------------
            Exponent  Coefficients 
       -------------- ---------------------------------------------------------
  1 S  4.17351100E+03  0.001835
  1 S  6.27457900E+02  0.013995
  1 S  1.42902100E+02  0.068587
  1 S  4.02343300E+01  0.232241
  1 S  1.28202100E+01  0.469070
  1 S  4.39043700E+00  0.360455

  2 S  1.16263580E+01 -0.114961
  2 S  2.71628000E+00 -0.169118
  2 S  7.72218000E-01  1.145852

  3 P  1.16263580E+01  0.067580
  3 P  2.71628000E+00  0.323907
  3 P  7.72218000E-01  0.740895

  4 S  2.12031300E-01  1.000000

  5 P  2.12031300E-01  1.000000



 Summary of "ao basis" -> "" (cartesian)
 ------------------------------------------------------------------------------
       Tag                 Description            Shells   Functions and Types
 ---------------- ------------------------------  ------  ---------------------
 N                           6-31G                   5        9   3s2p


  xc_inp: hfexch multiplicative factor not found.


                           NWChem Geometry Optimization
                           ----------------------------




                                  N2 dft optimize


 maximum gradient threshold         (gmax) =   0.000450
 rms gradient threshold             (grms) =   0.000300
 maximum cartesian step threshold   (xmax) =   0.001800
 rms cartesian step threshold       (xrms) =   0.001200
 fixed trust radius                (trust) =   0.300000
 maximum step size to saddle      (sadstp) =   0.100000
 energy precision                  (eprec) =   5.0D-06
 maximum number of steps          (nptopt) =   20
 initial hessian option           (inhess) =    0
 line search option               (linopt) =    1
 hessian update option            (modupd) =    1
 saddle point option              (modsad) =    0
 initial eigen-mode to follow     (moddir) =    0
 initial variable to follow       (vardir) =    0
 follow first negative mode     (firstneg) =    T
 apply conjugacy                    (opcg) =    F
 source of zmatrix                         =   autoz   


          -------------------
          Energy Minimization
          -------------------


 Names of Z-matrix variables 
    1         

 Variables with the same non-blank name are constrained to be equal


 Using diagonal initial Hessian 
 Scaling for Hessian diagonals: bonds = 1.00  angles = 0.25  torsions = 0.10

          --------
          Step   0
          --------


                         Geometry "geometry" -> "geometry"
                         ---------------------------------

 Output coordinates in angstroms (scale by  1.889725989 to convert to a.u.)

  No.       Tag          Charge          X              Y              Z
 ---- ---------------- ---------- -------------- -------------- --------------
    1 N                    7.0000     0.00000000     0.00000000    -0.55000000
    2 N                    7.0000     0.00000000     0.00000000     0.55000000

      Atomic Mass 
      ----------- 

      N                 14.003070


 Effective nuclear repulsion energy (a.u.)      23.5724410918

            Nuclear Dipole moment (a.u.) 
            ----------------------------
        X                 Y               Z
 ---------------- ---------------- ----------------
     0.0000000000     0.0000000000     0.0000000000

      Symmetry information
      --------------------

 Group name             D4h       
 Group number             28
 Group order              16
 No. of unique centers     1

      Symmetry unique atoms

     1


                                 NWChem DFT Module
                                 -----------------


                                  N2 dft optimize


  Caching 1-el integrals 

            General Information
            -------------------
          SCF calculation type: DFT
          Wavefunction type:  closed shell.
          No. of atoms     :     2
          No. of electrons :    14
           Alpha electrons :     7
            Beta electrons :     7
          Charge           :     0
          Spin multiplicity:     1
          Use of symmetry is: on ; symmetry adaption is: on 
          Maximum number of iterations:  30
          AO basis - number of functions:    18
                     number of shells:    10
          Convergence on energy requested: 1.00D-06
          Convergence on density requested: 1.00D-05
          Convergence on gradient requested: 5.00D-04

              XC Information
              --------------
                     Hartree-Fock (Exact) Exchange  1.000          

          Convergence Information
          -----------------------
          Convergence aids based upon iterative change in 
          total energy or number of iterations. 
          Levelshifting, if invoked, occurs when the 
          HOMO/LUMO gap drops below (HL_TOL): 1.00D-02
          DIIS, if invoked, will attempt to extrapolate 
          using up to (NFOCK): 10 stored Fock matrices.

                    Damping( 0%)  Levelshifting(0.5)       DIIS
                  --------------- ------------------- ---------------
          dE  on:    start            ASAP                start   
          dE off:    2 iters         30 iters            30 iters 


      Screening Tolerance Information
      -------------------------------
          Density screening/tol_rho: 1.00D-10
          AO Gaussian exp screening on grid/accAOfunc:  14
          CD Gaussian exp screening on grid/accCDfunc:  20
          XC Gaussian exp screening on grid/accXCfunc:  20
          Schwarz screening/accCoul: 1.00D-08


      Superposition of Atomic Density Guess
      -------------------------------------

 Sum of atomic energies:        -108.58747649

      Non-variational initial energy
      ------------------------------

 Total energy =    -109.087152
 1-e energy   =    -193.804074
 2-e energy   =      61.144481
 HOMO         =      -0.421019
 LUMO         =       0.030151


      Symmetry analysis of molecular orbitals - initial
      -------------------------------------------------

  Numbering of irreducible representations: 

     1 a1g         2 a1u         3 a2g         4 a2u         5 b1g     
     6 b1u         7 b2g         8 b2u         9 eg         10 eu      

  Orbital symmetries:

     1 a1g         2 a2u         3 a1g         4 a2u         5 eu      
     6 eu          7 a1g         8 eg          9 eg         10 a2u     
    11 a1g        12 eu         13 eu         14 a1g        15 eg      
    16 eg         17 a2u     

   Time after variat. SCF:      0.1
   Time prior to 1st pass:      0.1

 #quartets = 1.044D+03 #integrals = 3.290D+03 #direct =  0.0% #cached =100.0%


 Integral file          = ./N2.aoints.0
 Record size in doubles =  65536        No. of integs per rec  =  43688
 Max. records in memory =      2        Max. records in file   = 185863
 No. of bits per label  =      8        No. of bits per value  =     64


           Memory utilization after 1st SCF pass: 
           Heap Space remaining (MW):       32.64            32635575
          Stack Space remaining (MW):       32.77            32767795

   convergence    iter        energy       DeltaE   RMS-Dens  Diis-err    time
 ---------------- ----- ----------------- --------- --------- ---------  ------
 d= 0,ls=0.0,diis     1   -108.8563450586 -1.32D+02  1.39D-02  7.71D-02     0.1
 d= 0,ls=0.0,diis     2   -108.8669793684 -1.06D-02  3.79D-03  3.91D-03     0.1
 d= 0,ls=0.0,diis     3   -108.8675744150 -5.95D-04  9.87D-04  2.27D-04     0.1
 d= 0,ls=0.0,diis     4   -108.8676180612 -4.36D-05  8.00D-05  1.52D-06     0.1
 d= 0,ls=0.0,diis     5   -108.8676183730 -3.12D-07  9.73D-06  2.99D-08     0.1


         Total DFT energy =     -108.867618372995
      One electron energy =     -193.666361497589
           Coulomb energy =       74.280323540651
    Exchange-Corr. energy =      -13.054021507862
 Nuclear repulsion energy =       23.572441091805

 Numeric. integr. density =        0.000000000000

     Total iterative time =      0.0s



                  Occupations of the irreducible representations
                  ----------------------------------------------

                     irrep           alpha         beta
                     --------     --------     --------
                     a1g               3.0          3.0
                     a1u               0.0          0.0
                     a2g               0.0          0.0
                     a2u               2.0          2.0
                     b1g               0.0          0.0
                     b1u               0.0          0.0
                     b2g               0.0          0.0
                     b2u               0.0          0.0
                     eg                0.0          0.0
                     eu                2.0          2.0


                       DFT Final Molecular Orbital Analysis
                       ------------------------------------

 Vector    1  Occ=2.000000D+00  E=-1.571862D+01  Symmetry=a1g
              MO Center= -1.3D-17, -9.0D-18, -2.9D-13, r^2= 3.2D-01
   Bfn.  Coefficient  Atom+Function         Bfn.  Coefficient  Atom+Function  
  ----- ------------  ---------------      ----- ------------  ---------------
     1      0.704085  1 N  s                 10      0.704085  2 N  s          

 Vector    2  Occ=2.000000D+00  E=-1.571526D+01  Symmetry=a2u
              MO Center=  5.9D-18, -2.0D-18,  2.9D-13, r^2= 3.2D-01
   Bfn.  Coefficient  Atom+Function         Bfn.  Coefficient  Atom+Function  
  ----- ------------  ---------------      ----- ------------  ---------------
     1      0.704582  1 N  s                 10     -0.704582  2 N  s          

 Vector    3  Occ=2.000000D+00  E=-1.525345D+00  Symmetry=a1g
              MO Center= -1.4D-33, -9.9D-34, -8.3D-17, r^2= 4.3D-01
   Bfn.  Coefficient  Atom+Function         Bfn.  Coefficient  Atom+Function  
  ----- ------------  ---------------      ----- ------------  ---------------
     2      0.360161  1 N  s                 11      0.360161  2 N  s          
     5      0.242079  1 N  pz                14     -0.242079  2 N  pz         
     6      0.173003  1 N  s                 15      0.173003  2 N  s          
     1     -0.156966  1 N  s                 10     -0.156966  2 N  s          

 Vector    4  Occ=2.000000D+00  E=-7.758023D-01  Symmetry=a2u
              MO Center= -1.0D-17,  2.4D-17,  1.4D-15, r^2= 1.3D+00
   Bfn.  Coefficient  Atom+Function         Bfn.  Coefficient  Atom+Function  
  ----- ------------  ---------------      ----- ------------  ---------------
     6      0.562806  1 N  s                 15     -0.562806  2 N  s          
     2      0.340403  1 N  s                 11     -0.340403  2 N  s          
     5     -0.200700  1 N  pz                14     -0.200700  2 N  pz         

 Vector    5  Occ=2.000000D+00  E=-6.293795D-01  Symmetry=a1g
              MO Center= -3.5D-33, -2.4D-33, -1.3D-15, r^2= 1.3D+00
   Bfn.  Coefficient  Atom+Function         Bfn.  Coefficient  Atom+Function  
  ----- ------------  ---------------      ----- ------------  ---------------
     5      0.467589  1 N  pz                14     -0.467589  2 N  pz         
     6     -0.338640  1 N  s                 15     -0.338640  2 N  s          
     9      0.179275  1 N  pz                18     -0.179275  2 N  pz         

 Vector    6  Occ=2.000000D+00  E=-6.212358D-01  Symmetry=eu
              MO Center= -1.9D-19,  2.7D-19,  0.0D+00, r^2= 9.7D-01
   Bfn.  Coefficient  Atom+Function         Bfn.  Coefficient  Atom+Function  
  ----- ------------  ---------------      ----- ------------  ---------------
     4      0.366690  1 N  py                13      0.366690  2 N  py         
     3     -0.248325  1 N  px                12     -0.248325  2 N  px         
     8      0.210739  1 N  py                17      0.210739  2 N  py         

 Vector    7  Occ=2.000000D+00  E=-6.212358D-01  Symmetry=eu
              MO Center= -8.4D-19, -5.7D-19, -1.9D-16, r^2= 9.7D-01
   Bfn.  Coefficient  Atom+Function         Bfn.  Coefficient  Atom+Function  
  ----- ------------  ---------------      ----- ------------  ---------------
     3      0.366690  1 N  px                12      0.366690  2 N  px         
     4      0.248325  1 N  py                13      0.248325  2 N  py         
     7      0.210739  1 N  px                16      0.210739  2 N  px         

 Vector    8  Occ=0.000000D+00  E= 1.497890D-01  Symmetry=eg
              MO Center= -4.6D-23, -1.5D-23,  2.8D-16, r^2= 1.4D+00
   Bfn.  Coefficient  Atom+Function         Bfn.  Coefficient  Atom+Function  
  ----- ------------  ---------------      ----- ------------  ---------------
     7      0.633257  1 N  px                16     -0.633257  2 N  px         
     3      0.424745  1 N  px                12     -0.424745  2 N  px         
     8      0.210565  1 N  py                17     -0.210565  2 N  py         

 Vector    9  Occ=0.000000D+00  E= 1.497890D-01  Symmetry=eg
              MO Center= -7.7D-22,  2.3D-21,  5.6D-17, r^2= 1.4D+00
   Bfn.  Coefficient  Atom+Function         Bfn.  Coefficient  Atom+Function  
  ----- ------------  ---------------      ----- ------------  ---------------
     8      0.633257  1 N  py                17     -0.633257  2 N  py         
     4      0.424745  1 N  py                13     -0.424745  2 N  py         
     7     -0.210565  1 N  px                16      0.210565  2 N  px         

 Vector   10  Occ=0.000000D+00  E= 5.882920D-01  Symmetry=a2u
              MO Center= -6.1D-16,  3.2D-16,  1.3D-15, r^2= 3.1D+00
   Bfn.  Coefficient  Atom+Function         Bfn.  Coefficient  Atom+Function  
  ----- ------------  ---------------      ----- ------------  ---------------
     6      4.056877  1 N  s                 15     -4.056877  2 N  s          
     9      2.655124  1 N  pz                18      2.655124  2 N  pz         
     2      0.199343  1 N  s                 11     -0.199343  2 N  s          

 Vector   11  Occ=0.000000D+00  E= 7.872870D-01  Symmetry=a1g
              MO Center=  1.9D-16,  3.4D-17,  5.4D-15, r^2= 2.3D+00
   Bfn.  Coefficient  Atom+Function         Bfn.  Coefficient  Atom+Function  
  ----- ------------  ---------------      ----- ------------  ---------------
     9      0.993472  1 N  pz                18     -0.993472  2 N  pz         
     5     -0.462737  1 N  pz                14      0.462737  2 N  pz         
     2     -0.390652  1 N  s                 11     -0.390652  2 N  s          

 Vector   12  Occ=0.000000D+00  E= 8.481784D-01  Symmetry=eu
              MO Center= -8.1D-16, -9.4D-16, -1.1D-15, r^2= 1.8D+00
   Bfn.  Coefficient  Atom+Function         Bfn.  Coefficient  Atom+Function  
  ----- ------------  ---------------      ----- ------------  ---------------
     4      0.512318  1 N  py                13      0.512318  2 N  py         
     8     -0.470875  1 N  py                17     -0.470875  2 N  py         
     3      0.441339  1 N  px                12      0.441339  2 N  px         
     7     -0.405638  1 N  px                16     -0.405638  2 N  px         

 Vector   13  Occ=0.000000D+00  E= 8.481784D-01  Symmetry=eu
              MO Center= -9.2D-16,  7.9D-16, -1.5D-15, r^2= 1.8D+00
   Bfn.  Coefficient  Atom+Function         Bfn.  Coefficient  Atom+Function  
  ----- ------------  ---------------      ----- ------------  ---------------
     3      0.512318  1 N  px                12      0.512318  2 N  px         
     7     -0.470875  1 N  px                16     -0.470875  2 N  px         
     4     -0.441339  1 N  py                13     -0.441339  2 N  py         
     8      0.405638  1 N  py                17      0.405638  2 N  py         

 Vector   14  Occ=0.000000D+00  E= 9.442518D-01  Symmetry=a1g
              MO Center=  1.6D-15,  1.2D-16, -7.0D-15, r^2= 1.9D+00
   Bfn.  Coefficient  Atom+Function         Bfn.  Coefficient  Atom+Function  
  ----- ------------  ---------------      ----- ------------  ---------------
     2      1.032315  1 N  s                 11      1.032315  2 N  s          
     6     -0.905939  1 N  s                 15     -0.905939  2 N  s          
     5     -0.264229  1 N  pz                14      0.264229  2 N  pz         
     9      0.175001  1 N  pz                18     -0.175001  2 N  pz         

 Vector   15  Occ=0.000000D+00  E= 1.009518D+00  Symmetry=eg
              MO Center=  6.3D-15, -2.6D-16,  1.1D-15, r^2= 2.0D+00
   Bfn.  Coefficient  Atom+Function         Bfn.  Coefficient  Atom+Function  
  ----- ------------  ---------------      ----- ------------  ---------------
     7      1.146096  1 N  px                16     -1.146096  2 N  px         
     3     -0.734896  1 N  px                12      0.734896  2 N  px         

 Vector   16  Occ=0.000000D+00  E= 1.009518D+00  Symmetry=eg
              MO Center= -6.6D-17, -1.6D-15,  1.2D-15, r^2= 2.0D+00
   Bfn.  Coefficient  Atom+Function         Bfn.  Coefficient  Atom+Function  
  ----- ------------  ---------------      ----- ------------  ---------------
     8      1.146096  1 N  py                17     -1.146096  2 N  py         
     4     -0.734896  1 N  py                13      0.734896  2 N  py         

 Vector   17  Occ=0.000000D+00  E= 1.151185D+00  Symmetry=a2u
              MO Center= -5.6D-15,  1.5D-15,  1.4D-16, r^2= 1.3D+00
   Bfn.  Coefficient  Atom+Function         Bfn.  Coefficient  Atom+Function  
  ----- ------------  ---------------      ----- ------------  ---------------
     6      2.043509  1 N  s                 15     -2.043509  2 N  s          
     5      0.876920  1 N  pz                14      0.876920  2 N  pz         
     9      0.445356  1 N  pz                18      0.445356  2 N  pz         
     2     -0.365251  1 N  s                 11      0.365251  2 N  s          


 center of mass
 --------------
 x =   0.00000000 y =   0.00000000 z =   0.00000000

 moments of inertia (a.u.)
 ------------------
          30.253547438217           0.000000000000           0.000000000000
           0.000000000000          30.253547438217           0.000000000000
           0.000000000000           0.000000000000           0.000000000000

     Multipole analysis of the density
     ---------------------------------

     L   x y z        total         alpha         beta         nuclear
     -   - - -        -----         -----         ----         -------
     0   0 0 0     -0.000000     -7.000000     -7.000000     14.000000

     1   1 0 0      0.000000      0.000000      0.000000      0.000000
     1   0 1 0     -0.000000     -0.000000     -0.000000      0.000000
     1   0 0 1      0.000000      0.000000      0.000000      0.000000

     2   2 0 0     -7.662882     -3.831441     -3.831441      0.000000
     2   1 1 0     -0.000000     -0.000000     -0.000000      0.000000
     2   1 0 1     -0.000000     -0.000000     -0.000000      0.000000
     2   0 2 0     -7.662882     -3.831441     -3.831441      0.000000
     2   0 1 1      0.000000      0.000000      0.000000      0.000000
     2   0 0 2     -9.343510    -12.233484    -12.233484     15.123457


 Parallel integral file used       1 records with       0 large values



                            NWChem DFT Gradient Module
                            --------------------------


                                  N2 dft optimize



  charge          =   0.00
  wavefunction    = closed shell

  Using symmetry


                         DFT ENERGY GRADIENTS

    atom               coordinates                        gradient
                 x          y          z           x          y          z
   1 N       0.000000   0.000000  -1.039349    0.000000   0.000000  -0.037169
   2 N       0.000000   0.000000   1.039349    0.000000  -0.000000   0.037169

                 ----------------------------------------
                 |  Time  |  1-e(secs)   |  2-e(secs)   |
                 ----------------------------------------
                 |  CPU   |       0.00   |       0.03   |
                 ----------------------------------------
                 |  WALL  |       0.00   |       0.03   |
                 ----------------------------------------

@ Step       Energy      Delta E   Gmax     Grms     Xrms     Xmax   Walltime
@ ---- ---------------- -------- -------- -------- -------- -------- --------
@    0    -108.86761837  0.0D+00  0.03717  0.03717  0.00000  0.00000      0.2
                                                                    



                                Z-matrix (autoz)
                                -------- 

 Units are Angstrom for bonds and degrees for angles

      Type          Name      I     J     K     L     M      Value     Gradient
      ----------- --------  ----- ----- ----- ----- ----- ---------- ----------
    1 Stretch                  1     2                       1.10000    0.03717


                                 NWChem DFT Module
                                 -----------------


                                  N2 dft optimize


  Caching 1-el integrals 

            General Information
            -------------------
          SCF calculation type: DFT
          Wavefunction type:  closed shell.
          No. of atoms     :     2
          No. of electrons :    14
           Alpha electrons :     7
            Beta electrons :     7
          Charge           :     0
          Spin multiplicity:     1
          Use of symmetry is: on ; symmetry adaption is: on 
          Maximum number of iterations:  30
          AO basis - number of functions:    18
                     number of shells:    10
          Convergence on energy requested: 1.00D-06
          Convergence on density requested: 1.00D-05
          Convergence on gradient requested: 5.00D-04

              XC Information
              --------------
                     Hartree-Fock (Exact) Exchange  1.000          

          Convergence Information
          -----------------------
          Convergence aids based upon iterative change in 
          total energy or number of iterations. 
          Levelshifting, if invoked, occurs when the 
          HOMO/LUMO gap drops below (HL_TOL): 1.00D-02
          DIIS, if invoked, will attempt to extrapolate 
          using up to (NFOCK): 10 stored Fock matrices.

                    Damping( 0%)  Levelshifting(0.5)       DIIS
                  --------------- ------------------- ---------------
          dE  on:    start            ASAP                start   
          dE off:    2 iters         30 iters            30 iters 


      Screening Tolerance Information
      -------------------------------
          Density screening/tol_rho: 1.00D-10
          AO Gaussian exp screening on grid/accAOfunc:  14
          CD Gaussian exp screening on grid/accCDfunc:  20
          XC Gaussian exp screening on grid/accXCfunc:  20
          Schwarz screening/accCoul: 1.00D-08


 Loading old vectors from job with title :

N2 dft optimize


      Symmetry analysis of molecular orbitals - initial
      -------------------------------------------------

  Numbering of irreducible representations: 

     1 a1g         2 a1u         3 a2g         4 a2u         5 b1g     
     6 b1u         7 b2g         8 b2u         9 eg         10 eu      

  Orbital symmetries:

     1 a1g         2 a2u         3 a1g         4 a2u         5 a1g     
     6 eu          7 eu          8 eg          9 eg         10 a2u     
    11 a1g        12 eu         13 eu         14 a1g        15 eg      
    16 eg         17 a2u     

   Time after variat. SCF:      0.2
   Time prior to 1st pass:      0.2

 #quartets = 1.044D+03 #integrals = 3.290D+03 #direct =  0.0% #cached =100.0%


 Integral file          = ./N2.aoints.0
 Record size in doubles =  65536        No. of integs per rec  =  43688
 Max. records in memory =      2        Max. records in file   = 185863
 No. of bits per label  =      8        No. of bits per value  =     64


           Memory utilization after 1st SCF pass: 
           Heap Space remaining (MW):       32.64            32635575
          Stack Space remaining (MW):       32.77            32767795

   convergence    iter        energy       DeltaE   RMS-Dens  Diis-err    time
 ---------------- ----- ----------------- --------- --------- ---------  ------
 d= 0,ls=0.0,diis     1   -108.8657135788 -1.33D+02  3.28D-03  6.18D-03     0.2
 d= 0,ls=0.0,diis     2   -108.8666057483 -8.92D-04  9.77D-04  3.32D-04     0.2
 d= 0,ls=0.0,diis     3   -108.8666536160 -4.79D-05  3.29D-04  1.77D-05     0.2
 d= 0,ls=0.0,diis     4   -108.8666570654 -3.45D-06  6.28D-05  7.87D-08     0.2
 d= 0,ls=0.0,diis     5   -108.8666570827 -1.73D-08  7.33D-06  1.42D-09     0.2


         Total DFT energy =     -108.866657082667
      One electron energy =     -194.958597339769
           Coulomb energy =       74.948714309145
    Exchange-Corr. energy =      -13.101110073999
 Nuclear repulsion energy =       24.244336021956

 Numeric. integr. density =        0.000000000000

     Total iterative time =      0.0s



                  Occupations of the irreducible representations
                  ----------------------------------------------

                     irrep           alpha         beta
                     --------     --------     --------
                     a1g               3.0          3.0
                     a1u               0.0          0.0
                     a2g               0.0          0.0
                     a2u               2.0          2.0
                     b1g               0.0          0.0
                     b1u               0.0          0.0
                     b2g               0.0          0.0
                     b2u               0.0          0.0
                     eg                0.0          0.0
                     eu                2.0          2.0


                       DFT Final Molecular Orbital Analysis
                       ------------------------------------

 Vector    1  Occ=2.000000D+00  E=-1.571021D+01  Symmetry=a1g
              MO Center=  5.5D-20,  2.9D-19, -2.4D-13, r^2= 3.1D-01
   Bfn.  Coefficient  Atom+Function         Bfn.  Coefficient  Atom+Function  
  ----- ------------  ---------------      ----- ------------  ---------------
     1      0.703989  1 N  s                 10      0.703989  2 N  s          

 Vector    2  Occ=2.000000D+00  E=-1.570616D+01  Symmetry=a2u
              MO Center=  1.9D-18, -3.0D-18,  2.4D-13, r^2= 3.1D-01
   Bfn.  Coefficient  Atom+Function         Bfn.  Coefficient  Atom+Function  
  ----- ------------  ---------------      ----- ------------  ---------------
     1      0.704618  1 N  s                 10     -0.704618  2 N  s          

 Vector    3  Occ=2.000000D+00  E=-1.548962D+00  Symmetry=a1g
              MO Center=  2.4D-17, -6.3D-18,  2.6D-16, r^2= 4.2D-01
   Bfn.  Coefficient  Atom+Function         Bfn.  Coefficient  Atom+Function  
  ----- ------------  ---------------      ----- ------------  ---------------
     2      0.360652  1 N  s                 11      0.360652  2 N  s          
     5      0.248442  1 N  pz                14     -0.248442  2 N  pz         
     6      0.165119  1 N  s                 15      0.165119  2 N  s          
     1     -0.159238  1 N  s                 10     -0.159238  2 N  s          

 Vector    4  Occ=2.000000D+00  E=-7.653693D-01  Symmetry=a2u
              MO Center= -2.0D-18, -5.9D-17, -2.2D-16, r^2= 1.3D+00
   Bfn.  Coefficient  Atom+Function         Bfn.  Coefficient  Atom+Function  
  ----- ------------  ---------------      ----- ------------  ---------------
     6      0.572591  1 N  s                 15     -0.572591  2 N  s          
     2      0.336469  1 N  s                 11     -0.336469  2 N  s          
     5     -0.206429  1 N  pz                14     -0.206429  2 N  pz         

 Vector    5  Occ=2.000000D+00  E=-6.344551D-01  Symmetry=eu
              MO Center= -1.9D-18, -1.7D-18, -1.8D-16, r^2= 9.4D-01
   Bfn.  Coefficient  Atom+Function         Bfn.  Coefficient  Atom+Function  
  ----- ------------  ---------------      ----- ------------  ---------------
     3      0.329873  1 N  px                12      0.329873  2 N  px         
     4      0.301031  1 N  py                13      0.301031  2 N  py         
     7      0.182546  1 N  px                16      0.182546  2 N  px         
     8      0.166585  1 N  py                17      0.166585  2 N  py         

 Vector    6  Occ=2.000000D+00  E=-6.344551D-01  Symmetry=eu
              MO Center=  1.2D-21, -1.3D-21, -1.4D-17, r^2= 9.4D-01
   Bfn.  Coefficient  Atom+Function         Bfn.  Coefficient  Atom+Function  
  ----- ------------  ---------------      ----- ------------  ---------------
     4     -0.329873  1 N  py                13     -0.329873  2 N  py         
     3      0.301031  1 N  px                12      0.301031  2 N  px         
     8     -0.182546  1 N  py                17     -0.182546  2 N  py         
     7      0.166585  1 N  px                16      0.166585  2 N  px         

 Vector    7  Occ=2.000000D+00  E=-6.320912D-01  Symmetry=a1g
              MO Center=  8.7D-19,  7.9D-19,  5.6D-17, r^2= 1.3D+00
   Bfn.  Coefficient  Atom+Function         Bfn.  Coefficient  Atom+Function  
  ----- ------------  ---------------      ----- ------------  ---------------
     5      0.466582  1 N  pz                14     -0.466582  2 N  pz         
     6     -0.344727  1 N  s                 15     -0.344727  2 N  s          
     9      0.173515  1 N  pz                18     -0.173515  2 N  pz         

 Vector    8  Occ=0.000000D+00  E= 1.663252D-01  Symmetry=eg
              MO Center=  7.2D-19,  5.4D-19,  2.8D-16, r^2= 1.4D+00
   Bfn.  Coefficient  Atom+Function         Bfn.  Coefficient  Atom+Function  
  ----- ------------  ---------------      ----- ------------  ---------------
     7      0.556191  1 N  px                16     -0.556191  2 N  px         
     8      0.416592  1 N  py                17     -0.416592  2 N  py         
     3      0.355658  1 N  px                12     -0.355658  2 N  px         
     4      0.266391  1 N  py                13     -0.266391  2 N  py         

 Vector    9  Occ=0.000000D+00  E= 1.663252D-01  Symmetry=eg
              MO Center=  1.5D-18, -2.0D-18, -8.3D-17, r^2= 1.4D+00
   Bfn.  Coefficient  Atom+Function         Bfn.  Coefficient  Atom+Function  
  ----- ------------  ---------------      ----- ------------  ---------------
     8      0.556191  1 N  py                17     -0.556191  2 N  py         
     7     -0.416592  1 N  px                16      0.416592  2 N  px         
     4      0.355658  1 N  py                13     -0.355658  2 N  py         
     3     -0.266391  1 N  px                12      0.266391  2 N  px         

 Vector   10  Occ=0.000000D+00  E= 6.006212D-01  Symmetry=a2u
              MO Center= -3.9D-21,  2.5D-21, -1.8D-15, r^2= 3.2D+00
   Bfn.  Coefficient  Atom+Function         Bfn.  Coefficient  Atom+Function  
  ----- ------------  ---------------      ----- ------------  ---------------
     6      4.484803  1 N  s                 15     -4.484803  2 N  s          
     9      2.816059  1 N  pz                18      2.816059  2 N  pz         
     2      0.192862  1 N  s                 11     -0.192862  2 N  s          

 Vector   11  Occ=0.000000D+00  E= 7.737707D-01  Symmetry=a1g
              MO Center=  4.3D-19,  3.9D-19,  4.4D-16, r^2= 2.3D+00
   Bfn.  Coefficient  Atom+Function         Bfn.  Coefficient  Atom+Function  
  ----- ------------  ---------------      ----- ------------  ---------------
     9      1.011326  1 N  pz                18     -1.011326  2 N  pz         
     5     -0.441441  1 N  pz                14      0.441441  2 N  pz         
     2     -0.397019  1 N  s                 11     -0.397019  2 N  s          

 Vector   12  Occ=0.000000D+00  E= 8.405318D-01  Symmetry=eu
              MO Center= -4.0D-18, -9.0D-17,  6.7D-16, r^2= 1.8D+00
   Bfn.  Coefficient  Atom+Function         Bfn.  Coefficient  Atom+Function  
  ----- ------------  ---------------      ----- ------------  ---------------
     4      0.668357  1 N  py                13      0.668357  2 N  py         
     8     -0.621120  1 N  py                17     -0.621120  2 N  py         

 Vector   13  Occ=0.000000D+00  E= 8.405318D-01  Symmetry=eu
              MO Center= -2.3D-17,  1.0D-18,  1.6D-15, r^2= 1.8D+00
   Bfn.  Coefficient  Atom+Function         Bfn.  Coefficient  Atom+Function  
  ----- ------------  ---------------      ----- ------------  ---------------
     3      0.668357  1 N  px                12      0.668357  2 N  px         
     7     -0.621120  1 N  px                16     -0.621120  2 N  px         

 Vector   14  Occ=0.000000D+00  E= 9.474792D-01  Symmetry=a1g
              MO Center=  3.0D-18,  9.5D-17, -4.7D-16, r^2= 1.8D+00
   Bfn.  Coefficient  Atom+Function         Bfn.  Coefficient  Atom+Function  
  ----- ------------  ---------------      ----- ------------  ---------------
     2      1.026274  1 N  s                 11      1.026274  2 N  s          
     6     -0.901214  1 N  s                 15     -0.901214  2 N  s          
     5     -0.278500  1 N  pz                14      0.278500  2 N  pz         
     9      0.181395  1 N  pz                18     -0.181395  2 N  pz         

 Vector   15  Occ=0.000000D+00  E= 1.018648D+00  Symmetry=eg
              MO Center= -4.3D-16,  2.9D-16, -1.7D-15, r^2= 2.0D+00
   Bfn.  Coefficient  Atom+Function         Bfn.  Coefficient  Atom+Function  
  ----- ------------  ---------------      ----- ------------  ---------------
     7      0.959205  1 N  px                16     -0.959205  2 N  px         
     8     -0.655469  1 N  py                17      0.655469  2 N  py         
     3     -0.613396  1 N  px                12      0.613396  2 N  px         
     4      0.419162  1 N  py                13     -0.419162  2 N  py         

 Vector   16  Occ=0.000000D+00  E= 1.018648D+00  Symmetry=eg
              MO Center=  2.9D-17,  4.3D-17, -1.3D-15, r^2= 2.0D+00
   Bfn.  Coefficient  Atom+Function         Bfn.  Coefficient  Atom+Function  
  ----- ------------  ---------------      ----- ------------  ---------------
     8      0.959205  1 N  py                17     -0.959205  2 N  py         
     7      0.655469  1 N  px                16     -0.655469  2 N  px         
     4     -0.613396  1 N  py                13      0.613396  2 N  py         
     3     -0.419162  1 N  px                12      0.419162  2 N  px         

 Vector   17  Occ=0.000000D+00  E= 1.194052D+00  Symmetry=a2u
              MO Center=  3.9D-16, -2.7D-16,  3.9D-16, r^2= 1.3D+00
   Bfn.  Coefficient  Atom+Function         Bfn.  Coefficient  Atom+Function  
  ----- ------------  ---------------      ----- ------------  ---------------
     6      2.889562  1 N  s                 15     -2.889562  2 N  s          
     5      0.853915  1 N  pz                14      0.853915  2 N  pz         
     9      0.843809  1 N  pz                18      0.843809  2 N  pz         
     2     -0.455071  1 N  s                 11      0.455071  2 N  s          


 center of mass
 --------------
 x =   0.00000000 y =   0.00000000 z =   0.00000000

 moments of inertia (a.u.)
 ------------------
          28.599921096423           0.000000000000           0.000000000000
           0.000000000000          28.599921096423           0.000000000000
           0.000000000000           0.000000000000           0.000000000000

     Multipole analysis of the density
     ---------------------------------

     L   x y z        total         alpha         beta         nuclear
     -   - - -        -----         -----         ----         -------
     0   0 0 0     -0.000000     -7.000000     -7.000000     14.000000

     1   1 0 0     -0.000000     -0.000000     -0.000000      0.000000
     1   0 1 0      0.000000      0.000000      0.000000      0.000000
     1   0 0 1     -0.000000     -0.000000     -0.000000      0.000000

     2   2 0 0     -7.575955     -3.787978     -3.787978      0.000000
     2   1 1 0      0.000000      0.000000      0.000000      0.000000
     2   1 0 1      0.000000      0.000000      0.000000      0.000000
     2   0 2 0     -7.575955     -3.787978     -3.787978      0.000000
     2   0 1 1      0.000000      0.000000      0.000000      0.000000
     2   0 0 2     -9.292864    -11.794845    -11.794845     14.296825


 Parallel integral file used       1 records with       0 large values

 Line search: 
     step= 1.00 grad=-2.1D-03 hess= 3.1D-03 energy=   -108.866657 mode=bracket 
 new step= 0.35                   predicted energy=   -108.867988

          --------
          Step   1
          --------


                         Geometry "geometry" -> "geometry"
                         ---------------------------------

 Output coordinates in angstroms (scale by  1.889725989 to convert to a.u.)

  No.       Tag          Charge          X              Y              Z
 ---- ---------------- ---------- -------------- -------------- --------------
    1 N                    7.0000     0.00000000     0.00000000    -0.54474014
    2 N                    7.0000     0.00000000     0.00000000     0.54474014

      Atomic Mass 
      ----------- 

      N                 14.003070


 Effective nuclear repulsion energy (a.u.)      23.8000500443

            Nuclear Dipole moment (a.u.) 
            ----------------------------
        X                 Y               Z
 ---------------- ---------------- ----------------
     0.0000000000     0.0000000000     0.0000000000

      Symmetry information
      --------------------

 Group name             D4h       
 Group number             28
 Group order              16
 No. of unique centers     1

      Symmetry unique atoms

     1


                                 NWChem DFT Module
                                 -----------------


                                  N2 dft optimize


  Caching 1-el integrals 

            General Information
            -------------------
          SCF calculation type: DFT
          Wavefunction type:  closed shell.
          No. of atoms     :     2
          No. of electrons :    14
           Alpha electrons :     7
            Beta electrons :     7
          Charge           :     0
          Spin multiplicity:     1
          Use of symmetry is: on ; symmetry adaption is: on 
          Maximum number of iterations:  30
          AO basis - number of functions:    18
                     number of shells:    10
          Convergence on energy requested: 1.00D-06
          Convergence on density requested: 1.00D-05
          Convergence on gradient requested: 5.00D-04

              XC Information
              --------------
                     Hartree-Fock (Exact) Exchange  1.000          

          Convergence Information
          -----------------------
          Convergence aids based upon iterative change in 
          total energy or number of iterations. 
          Levelshifting, if invoked, occurs when the 
          HOMO/LUMO gap drops below (HL_TOL): 1.00D-02
          DIIS, if invoked, will attempt to extrapolate 
          using up to (NFOCK): 10 stored Fock matrices.

                    Damping( 0%)  Levelshifting(0.5)       DIIS
                  --------------- ------------------- ---------------
          dE  on:    start            ASAP                start   
          dE off:    2 iters         30 iters            30 iters 


      Screening Tolerance Information
      -------------------------------
          Density screening/tol_rho: 1.00D-10
          AO Gaussian exp screening on grid/accAOfunc:  14
          CD Gaussian exp screening on grid/accCDfunc:  20
          XC Gaussian exp screening on grid/accXCfunc:  20
          Schwarz screening/accCoul: 1.00D-08


 Loading old vectors from job with title :

N2 dft optimize


      Symmetry analysis of molecular orbitals - initial
      -------------------------------------------------

  Numbering of irreducible representations: 

     1 a1g         2 a1u         3 a2g         4 a2u         5 b1g     
     6 b1u         7 b2g         8 b2u         9 eg         10 eu      

  Orbital symmetries:

     1 a1g         2 a2u         3 a1g         4 a2u         5 eu      
     6 eu          7 a1g         8 eg          9 eg         10 a2u     
    11 a1g        12 eu         13 eu         14 a1g        15 eg      
    16 eg         17 a2u     

   Time after variat. SCF:      0.2
   Time prior to 1st pass:      0.2

 #quartets = 1.044D+03 #integrals = 3.290D+03 #direct =  0.0% #cached =100.0%


 Integral file          = ./N2.aoints.0
 Record size in doubles =  65536        No. of integs per rec  =  43688
 Max. records in memory =      2        Max. records in file   = 185863
 No. of bits per label  =      8        No. of bits per value  =     64


           Memory utilization after 1st SCF pass: 
           Heap Space remaining (MW):       32.64            32635575
          Stack Space remaining (MW):       32.77            32767795

   convergence    iter        energy       DeltaE   RMS-Dens  Diis-err    time
 ---------------- ----- ----------------- --------- --------- ---------  ------
 d= 0,ls=0.0,diis     1   -108.8675945415 -1.33D+02  2.16D-03  2.66D-03     0.3
 d= 0,ls=0.0,diis     2   -108.8679822362 -3.88D-04  6.40D-04  1.44D-04     0.3
 d= 0,ls=0.0,diis     3   -108.8680030678 -2.08D-05  2.11D-04  7.79D-06     0.3
 d= 0,ls=0.0,diis     4   -108.8680045975 -1.53D-06  3.84D-05  3.28D-08     0.3
 d= 0,ls=0.0,diis     5   -108.8680046047 -7.18D-09  4.42D-06  5.30D-10     0.3


         Total DFT energy =     -108.868004604667
      One electron energy =     -194.105424494088
           Coulomb energy =       74.507374034028
    Exchange-Corr. energy =      -13.070004188889
 Nuclear repulsion energy =       23.800050044282

 Numeric. integr. density =        0.000000000000

     Total iterative time =      0.0s



                  Occupations of the irreducible representations
                  ----------------------------------------------

                     irrep           alpha         beta
                     --------     --------     --------
                     a1g               3.0          3.0
                     a1u               0.0          0.0
                     a2g               0.0          0.0
                     a2u               2.0          2.0
                     b1g               0.0          0.0
                     b1u               0.0          0.0
                     b2g               0.0          0.0
                     b2u               0.0          0.0
                     eg                0.0          0.0
                     eu                2.0          2.0


                       DFT Final Molecular Orbital Analysis
                       ------------------------------------

 Vector    1  Occ=2.000000D+00  E=-1.571571D+01  Symmetry=a1g
              MO Center=  1.4D-17, -1.3D-17,  4.3D-13, r^2= 3.2D-01
   Bfn.  Coefficient  Atom+Function         Bfn.  Coefficient  Atom+Function  
  ----- ------------  ---------------      ----- ------------  ---------------
     1      0.704054  1 N  s                 10      0.704054  2 N  s          

 Vector    2  Occ=2.000000D+00  E=-1.571214D+01  Symmetry=a2u
              MO Center= -1.1D-17, -4.3D-18, -4.3D-13, r^2= 3.2D-01
   Bfn.  Coefficient  Atom+Function         Bfn.  Coefficient  Atom+Function  
  ----- ------------  ---------------      ----- ------------  ---------------
     1      0.704593  1 N  s                 10     -0.704593  2 N  s          

 Vector    3  Occ=2.000000D+00  E=-1.533490D+00  Symmetry=a1g
              MO Center= -6.5D-21, -7.9D-21,  0.0D+00, r^2= 4.3D-01
   Bfn.  Coefficient  Atom+Function         Bfn.  Coefficient  Atom+Function  
  ----- ------------  ---------------      ----- ------------  ---------------
     2      0.360357  1 N  s                 11      0.360357  2 N  s          
     5      0.244304  1 N  pz                14     -0.244304  2 N  pz         
     6      0.170243  1 N  s                 15      0.170243  2 N  s          
     1     -0.157702  1 N  s                 10     -0.157702  2 N  s          

 Vector    4  Occ=2.000000D+00  E=-7.722289D-01  Symmetry=a2u
              MO Center=  5.1D-18, -1.1D-17, -1.3D-15, r^2= 1.3D+00
   Bfn.  Coefficient  Atom+Function         Bfn.  Coefficient  Atom+Function  
  ----- ------------  ---------------      ----- ------------  ---------------
     6      0.566151  1 N  s                 15     -0.566151  2 N  s          
     2      0.339053  1 N  s                 11     -0.339053  2 N  s          
     5     -0.202699  1 N  pz                14     -0.202699  2 N  pz         

 Vector    5  Occ=2.000000D+00  E=-6.303493D-01  Symmetry=a1g
              MO Center= -5.6D-17,  9.2D-17,  2.0D-15, r^2= 1.3D+00
   Bfn.  Coefficient  Atom+Function         Bfn.  Coefficient  Atom+Function  
  ----- ------------  ---------------      ----- ------------  ---------------
     5      0.467245  1 N  pz                14     -0.467245  2 N  pz         
     6     -0.340809  1 N  s                 15     -0.340809  2 N  s          
     9      0.177281  1 N  pz                18     -0.177281  2 N  pz         

 Vector    6  Occ=2.000000D+00  E=-6.257100D-01  Symmetry=eu
              MO Center= -1.9D-20, -7.5D-20, -2.8D-17, r^2= 9.6D-01
   Bfn.  Coefficient  Atom+Function         Bfn.  Coefficient  Atom+Function  
  ----- ------------  ---------------      ----- ------------  ---------------
     4      0.430341  1 N  py                13      0.430341  2 N  py         
     8      0.244198  1 N  py                17      0.244198  2 N  py         

 Vector    7  Occ=2.000000D+00  E=-6.257100D-01  Symmetry=eu
              MO Center= -5.3D-19,  1.3D-19, -8.3D-17, r^2= 9.6D-01
   Bfn.  Coefficient  Atom+Function         Bfn.  Coefficient  Atom+Function  
  ----- ------------  ---------------      ----- ------------  ---------------
     3      0.430341  1 N  px                12      0.430341  2 N  px         
     7      0.244198  1 N  px                16      0.244198  2 N  px         

 Vector    8  Occ=0.000000D+00  E= 1.554143D-01  Symmetry=eg
              MO Center= -1.4D-17,  8.2D-18,  0.0D+00, r^2= 1.4D+00
   Bfn.  Coefficient  Atom+Function         Bfn.  Coefficient  Atom+Function  
  ----- ------------  ---------------      ----- ------------  ---------------
     7      0.589020  1 N  px                16     -0.589020  2 N  px         
     3      0.388768  1 N  px                12     -0.388768  2 N  px         
     8     -0.332851  1 N  py                17      0.332851  2 N  py         
     4     -0.219690  1 N  py                13      0.219690  2 N  py         

 Vector    9  Occ=0.000000D+00  E= 1.554143D-01  Symmetry=eg
              MO Center= -6.3D-18, -1.1D-17,  0.0D+00, r^2= 1.4D+00
   Bfn.  Coefficient  Atom+Function         Bfn.  Coefficient  Atom+Function  
  ----- ------------  ---------------      ----- ------------  ---------------
     8      0.589020  1 N  py                17     -0.589020  2 N  py         
     4      0.388768  1 N  py                13     -0.388768  2 N  py         
     7      0.332851  1 N  px                16     -0.332851  2 N  px         
     3      0.219690  1 N  px                12     -0.219690  2 N  px         

 Vector   10  Occ=0.000000D+00  E= 5.928003D-01  Symmetry=a2u
              MO Center= -3.5D-20, -6.7D-20,  4.4D-16, r^2= 3.1D+00
   Bfn.  Coefficient  Atom+Function         Bfn.  Coefficient  Atom+Function  
  ----- ------------  ---------------      ----- ------------  ---------------
     6      4.200659  1 N  s                 15     -4.200659  2 N  s          
     9      2.710536  1 N  pz                18      2.710536  2 N  pz         
     2      0.197124  1 N  s                 11     -0.197124  2 N  s          

 Vector   11  Occ=0.000000D+00  E= 7.824857D-01  Symmetry=a1g
              MO Center= -5.8D-16,  3.0D-16,  4.4D-16, r^2= 2.3D+00
   Bfn.  Coefficient  Atom+Function         Bfn.  Coefficient  Atom+Function  
  ----- ------------  ---------------      ----- ------------  ---------------
     9      0.999367  1 N  pz                18     -0.999367  2 N  pz         
     5     -0.455174  1 N  pz                14      0.455174  2 N  pz         
     2     -0.393694  1 N  s                 11     -0.393694  2 N  s          

 Vector   12  Occ=0.000000D+00  E= 8.456528D-01  Symmetry=eu
              MO Center=  1.4D-17,  2.1D-17,  4.2D-17, r^2= 1.8D+00
   Bfn.  Coefficient  Atom+Function         Bfn.  Coefficient  Atom+Function  
  ----- ------------  ---------------      ----- ------------  ---------------
     4      0.564104  1 N  py                13      0.564104  2 N  py         
     8     -0.520376  1 N  py                17     -0.520376  2 N  py         
     3      0.368526  1 N  px                12      0.368526  2 N  px         
     7     -0.339959  1 N  px                16     -0.339959  2 N  px         

 Vector   13  Occ=0.000000D+00  E= 8.456528D-01  Symmetry=eu
              MO Center= -2.2D-15,  1.4D-15, -4.2D-17, r^2= 1.8D+00
   Bfn.  Coefficient  Atom+Function         Bfn.  Coefficient  Atom+Function  
  ----- ------------  ---------------      ----- ------------  ---------------
     3      0.564104  1 N  px                12      0.564104  2 N  px         
     7     -0.520376  1 N  px                16     -0.520376  2 N  px         
     4     -0.368526  1 N  py                13     -0.368526  2 N  py         
     8      0.339959  1 N  py                17      0.339959  2 N  py         

 Vector   14  Occ=0.000000D+00  E= 9.453068D-01  Symmetry=a1g
              MO Center=  2.8D-15, -1.8D-15,  2.2D-15, r^2= 1.9D+00
   Bfn.  Coefficient  Atom+Function         Bfn.  Coefficient  Atom+Function  
  ----- ------------  ---------------      ----- ------------  ---------------
     2      1.029942  1 N  s                 11      1.029942  2 N  s          
     6     -0.904282  1 N  s                 15     -0.904282  2 N  s          
     5     -0.269539  1 N  pz                14      0.269539  2 N  pz         
     9      0.177967  1 N  pz                18     -0.177967  2 N  pz         

 Vector   15  Occ=0.000000D+00  E= 1.012538D+00  Symmetry=eg
              MO Center= -1.4D-16,  5.8D-16,  5.6D-17, r^2= 2.0D+00
   Bfn.  Coefficient  Atom+Function         Bfn.  Coefficient  Atom+Function  
  ----- ------------  ---------------      ----- ------------  ---------------
     8      1.117895  1 N  py                17     -1.117895  2 N  py         
     4     -0.716047  1 N  py                13      0.716047  2 N  py         
     7     -0.278777  1 N  px                16      0.278777  2 N  px         
     3      0.178565  1 N  px                12     -0.178565  2 N  px         

 Vector   16  Occ=0.000000D+00  E= 1.012538D+00  Symmetry=eg
              MO Center=  7.7D-16,  1.9D-16, -1.1D-16, r^2= 2.0D+00
   Bfn.  Coefficient  Atom+Function         Bfn.  Coefficient  Atom+Function  
  ----- ------------  ---------------      ----- ------------  ---------------
     7      1.117895  1 N  px                16     -1.117895  2 N  px         
     3     -0.716047  1 N  px                12      0.716047  2 N  px         
     8      0.278777  1 N  py                17     -0.278777  2 N  py         
     4     -0.178565  1 N  py                13      0.178565  2 N  py         

 Vector   17  Occ=0.000000D+00  E= 1.166173D+00  Symmetry=a2u
              MO Center= -6.0D-16, -7.5D-16, -8.3D-16, r^2= 1.3D+00
   Bfn.  Coefficient  Atom+Function         Bfn.  Coefficient  Atom+Function  
  ----- ------------  ---------------      ----- ------------  ---------------
     6      2.323054  1 N  s                 15     -2.323054  2 N  s          
     5      0.870498  1 N  pz                14      0.870498  2 N  pz         
     9      0.579522  1 N  pz                18      0.579522  2 N  pz         
     2     -0.395014  1 N  s                 11      0.395014  2 N  s          


 center of mass
 --------------
 x =   0.00000000 y =   0.00000000 z =   0.00000000

 moments of inertia (a.u.)
 ------------------
          29.677661958081           0.000000000000           0.000000000000
           0.000000000000          29.677661958081           0.000000000000
           0.000000000000           0.000000000000           0.000000000000

     Multipole analysis of the density
     ---------------------------------

     L   x y z        total         alpha         beta         nuclear
     -   - - -        -----         -----         ----         -------
     0   0 0 0     -0.000000     -7.000000     -7.000000     14.000000

     1   1 0 0      0.000000      0.000000      0.000000      0.000000
     1   0 1 0     -0.000000     -0.000000     -0.000000      0.000000
     1   0 0 1     -0.000000     -0.000000     -0.000000      0.000000

     2   2 0 0     -7.633325     -3.816662     -3.816662      0.000000
     2   1 1 0     -0.000000     -0.000000     -0.000000      0.000000
     2   1 0 1     -0.000000     -0.000000     -0.000000      0.000000
     2   0 2 0     -7.633325     -3.816662     -3.816662      0.000000
     2   0 1 1     -0.000000     -0.000000     -0.000000      0.000000
     2   0 0 2     -9.326613    -12.081096    -12.081096     14.835578


 Parallel integral file used       1 records with       0 large values



                            NWChem DFT Gradient Module
                            --------------------------


                                  N2 dft optimize



  charge          =   0.00
  wavefunction    = closed shell

  Using symmetry


                         DFT ENERGY GRADIENTS

    atom               coordinates                        gradient
                 x          y          z           x          y          z
   1 N       0.000000   0.000000  -1.029410    0.000000   0.000000  -0.001257
   2 N       0.000000   0.000000   1.029410    0.000000   0.000000   0.001257

                 ----------------------------------------
                 |  Time  |  1-e(secs)   |  2-e(secs)   |
                 ----------------------------------------
                 |  CPU   |       0.00   |       0.03   |
                 ----------------------------------------
                 |  WALL  |       0.00   |       0.03   |
                 ----------------------------------------

  Step       Energy      Delta E   Gmax     Grms     Xrms     Xmax   Walltime
  ---- ---------------- -------- -------- -------- -------- -------- --------
@    1    -108.86800460 -3.9D-04  0.00126  0.00126  0.00574  0.00994      0.7
                                                                    



                                Z-matrix (autoz)
                                -------- 

 Units are Angstrom for bonds and degrees for angles

      Type          Name      I     J     K     L     M      Value     Gradient
      ----------- --------  ----- ----- ----- ----- ----- ---------- ----------
    1 Stretch                  1     2                       1.08948    0.00126


                                 NWChem DFT Module
                                 -----------------


                                  N2 dft optimize


  Caching 1-el integrals 

            General Information
            -------------------
          SCF calculation type: DFT
          Wavefunction type:  closed shell.
          No. of atoms     :     2
          No. of electrons :    14
           Alpha electrons :     7
            Beta electrons :     7
          Charge           :     0
          Spin multiplicity:     1
          Use of symmetry is: on ; symmetry adaption is: on 
          Maximum number of iterations:  30
          AO basis - number of functions:    18
                     number of shells:    10
          Convergence on energy requested: 1.00D-06
          Convergence on density requested: 1.00D-05
          Convergence on gradient requested: 5.00D-04

              XC Information
              --------------
                     Hartree-Fock (Exact) Exchange  1.000          

          Convergence Information
          -----------------------
          Convergence aids based upon iterative change in 
          total energy or number of iterations. 
          Levelshifting, if invoked, occurs when the 
          HOMO/LUMO gap drops below (HL_TOL): 1.00D-02
          DIIS, if invoked, will attempt to extrapolate 
          using up to (NFOCK): 10 stored Fock matrices.

                    Damping( 0%)  Levelshifting(0.5)       DIIS
                  --------------- ------------------- ---------------
          dE  on:    start            ASAP                start   
          dE off:    2 iters         30 iters            30 iters 


      Screening Tolerance Information
      -------------------------------
          Density screening/tol_rho: 1.00D-10
          AO Gaussian exp screening on grid/accAOfunc:  14
          CD Gaussian exp screening on grid/accCDfunc:  20
          XC Gaussian exp screening on grid/accXCfunc:  20
          Schwarz screening/accCoul: 1.00D-08


 Loading old vectors from job with title :

N2 dft optimize


      Symmetry analysis of molecular orbitals - initial
      -------------------------------------------------

  Numbering of irreducible representations: 

     1 a1g         2 a1u         3 a2g         4 a2u         5 b1g     
     6 b1u         7 b2g         8 b2u         9 eg         10 eu      

  Orbital symmetries:

     1 a1g         2 a2u         3 a1g         4 a2u         5 a1g     
     6 eu          7 eu          8 eg          9 eg         10 a2u     
    11 a1g        12 eu         13 eu         14 a1g        15 eg      
    16 eg         17 a2u     

   Time after variat. SCF:      0.3
   Time prior to 1st pass:      0.3

 #quartets = 1.044D+03 #integrals = 3.290D+03 #direct =  0.0% #cached =100.0%


 Integral file          = ./N2.aoints.0
 Record size in doubles =  65536        No. of integs per rec  =  43688
 Max. records in memory =      2        Max. records in file   = 185863
 No. of bits per label  =      8        No. of bits per value  =     64


           Memory utilization after 1st SCF pass: 
           Heap Space remaining (MW):       32.64            32635575
          Stack Space remaining (MW):       32.77            32767795

   convergence    iter        energy       DeltaE   RMS-Dens  Diis-err    time
 ---------------- ----- ----------------- --------- --------- ---------  ------
 d= 0,ls=0.0,diis     1   -108.8680048890 -1.33D+02  3.94D-05  8.89D-07     0.4
 d= 0,ls=0.0,diis     2   -108.8680050184 -1.29D-07  1.18D-05  4.81D-08     0.4
 d= 0,ls=0.0,diis     3   -108.8680050254 -7.00D-09  3.85D-06  2.61D-09     0.4


         Total DFT energy =     -108.868005025426
      One electron energy =     -194.120883639100
           Coulomb energy =       74.515349920157
    Exchange-Corr. energy =      -13.070567858553
 Nuclear repulsion energy =       23.808096552071

 Numeric. integr. density =        0.000000000000

     Total iterative time =      0.0s



                  Occupations of the irreducible representations
                  ----------------------------------------------

                     irrep           alpha         beta
                     --------     --------     --------
                     a1g               3.0          3.0
                     a1u               0.0          0.0
                     a2g               0.0          0.0
                     a2u               2.0          2.0
                     b1g               0.0          0.0
                     b1u               0.0          0.0
                     b2g               0.0          0.0
                     b2u               0.0          0.0
                     eg                0.0          0.0
                     eu                2.0          2.0


                       DFT Final Molecular Orbital Analysis
                       ------------------------------------

 Vector    1  Occ=2.000000D+00  E=-1.571561D+01  Symmetry=a1g
              MO Center= -2.4D-17, -2.4D-17,  1.6D-13, r^2= 3.2D-01
   Bfn.  Coefficient  Atom+Function         Bfn.  Coefficient  Atom+Function  
  ----- ------------  ---------------      ----- ------------  ---------------
     1      0.704053  1 N  s                 10      0.704053  2 N  s          

 Vector    2  Occ=2.000000D+00  E=-1.571203D+01  Symmetry=a2u
              MO Center=  6.8D-34,  7.7D-34, -1.6D-13, r^2= 3.2D-01
   Bfn.  Coefficient  Atom+Function         Bfn.  Coefficient  Atom+Function  
  ----- ------------  ---------------      ----- ------------  ---------------
     1      0.704593  1 N  s                 10     -0.704593  2 N  s          

 Vector    3  Occ=2.000000D+00  E=-1.533775D+00  Symmetry=a1g
              MO Center= -1.1D-17, -6.3D-17,  2.4D-16, r^2= 4.3D-01
   Bfn.  Coefficient  Atom+Function         Bfn.  Coefficient  Atom+Function  
  ----- ------------  ---------------      ----- ------------  ---------------
     2      0.360364  1 N  s                 11      0.360364  2 N  s          
     5      0.244382  1 N  pz                14     -0.244382  2 N  pz         
     6      0.170147  1 N  s                 15      0.170147  2 N  s          
     1     -0.157729  1 N  s                 10     -0.157729  2 N  s          

 Vector    4  Occ=2.000000D+00  E=-7.721036D-01  Symmetry=a2u
              MO Center= -1.3D-16,  5.9D-17, -1.7D-15, r^2= 1.3D+00
   Bfn.  Coefficient  Atom+Function         Bfn.  Coefficient  Atom+Function  
  ----- ------------  ---------------      ----- ------------  ---------------
     6      0.566270  1 N  s                 15     -0.566270  2 N  s          
     2      0.339006  1 N  s                 11     -0.339006  2 N  s          
     5     -0.202769  1 N  pz                14     -0.202769  2 N  pz         

 Vector    5  Occ=2.000000D+00  E=-6.303831D-01  Symmetry=a1g
              MO Center=  8.0D-18,  5.5D-17,  1.9D-15, r^2= 1.3D+00
   Bfn.  Coefficient  Atom+Function         Bfn.  Coefficient  Atom+Function  
  ----- ------------  ---------------      ----- ------------  ---------------
     5      0.467233  1 N  pz                14     -0.467233  2 N  pz         
     6     -0.340884  1 N  s                 15     -0.340884  2 N  s          
     9      0.177211  1 N  pz                18     -0.177211  2 N  pz         

 Vector    6  Occ=2.000000D+00  E=-6.258678D-01  Symmetry=eu
              MO Center=  7.7D-19, -3.9D-19,  1.1D-16, r^2= 9.6D-01
   Bfn.  Coefficient  Atom+Function         Bfn.  Coefficient  Atom+Function  
  ----- ------------  ---------------      ----- ------------  ---------------
     3      0.396656  1 N  px                12      0.396656  2 N  px         
     7      0.224983  1 N  px                16      0.224983  2 N  px         
     4     -0.199851  1 N  py                13     -0.199851  2 N  py         

 Vector    7  Occ=2.000000D+00  E=-6.258678D-01  Symmetry=eu
              MO Center=  6.2D-20,  1.2D-19,  4.2D-17, r^2= 9.6D-01
   Bfn.  Coefficient  Atom+Function         Bfn.  Coefficient  Atom+Function  
  ----- ------------  ---------------      ----- ------------  ---------------
     4      0.396656  1 N  py                13      0.396656  2 N  py         
     8      0.224983  1 N  py                17      0.224983  2 N  py         
     3      0.199851  1 N  px                12      0.199851  2 N  px         

 Vector    8  Occ=0.000000D+00  E= 1.556129D-01  Symmetry=eg
              MO Center= -1.8D-19, -1.1D-19,  1.1D-16, r^2= 1.4D+00
   Bfn.  Coefficient  Atom+Function         Bfn.  Coefficient  Atom+Function  
  ----- ------------  ---------------      ----- ------------  ---------------
     7      0.582523  1 N  px                16     -0.582523  2 N  px         
     3      0.384260  1 N  px                12     -0.384260  2 N  px         
     8      0.344741  1 N  py                17     -0.344741  2 N  py         
     4      0.227408  1 N  py                13     -0.227408  2 N  py         

 Vector    9  Occ=0.000000D+00  E= 1.556129D-01  Symmetry=eg
              MO Center=  2.2D-19, -3.7D-19, -5.6D-17, r^2= 1.4D+00
   Bfn.  Coefficient  Atom+Function         Bfn.  Coefficient  Atom+Function  
  ----- ------------  ---------------      ----- ------------  ---------------
     8      0.582523  1 N  py                17     -0.582523  2 N  py         
     4      0.384260  1 N  py                13     -0.384260  2 N  py         
     7     -0.344741  1 N  px                16      0.344741  2 N  px         
     3     -0.227408  1 N  px                12      0.227408  2 N  px         

 Vector   10  Occ=0.000000D+00  E= 5.929531D-01  Symmetry=a2u
              MO Center=  3.6D-16, -2.2D-16,  1.5D-14, r^2= 3.1D+00
   Bfn.  Coefficient  Atom+Function         Bfn.  Coefficient  Atom+Function  
  ----- ------------  ---------------      ----- ------------  ---------------
     6      4.205762  1 N  s                 15     -4.205762  2 N  s          
     9      2.712477  1 N  pz                18      2.712477  2 N  pz         
     2      0.197045  1 N  s                 11     -0.197045  2 N  s          

 Vector   11  Occ=0.000000D+00  E= 7.823201D-01  Symmetry=a1g
              MO Center= -5.7D-19,  2.9D-19, -1.4D-14, r^2= 2.3D+00
   Bfn.  Coefficient  Atom+Function         Bfn.  Coefficient  Atom+Function  
  ----- ------------  ---------------      ----- ------------  ---------------
     9      0.999578  1 N  pz                18     -0.999578  2 N  pz         
     5     -0.454914  1 N  pz                14      0.454914  2 N  pz         
     2     -0.393782  1 N  s                 11     -0.393782  2 N  s          

 Vector   12  Occ=0.000000D+00  E= 8.455626D-01  Symmetry=eu
              MO Center=  4.0D-19, -3.3D-19, -1.2D-16, r^2= 1.8D+00
   Bfn.  Coefficient  Atom+Function         Bfn.  Coefficient  Atom+Function  
  ----- ------------  ---------------      ----- ------------  ---------------
     3      0.521253  1 N  px                12      0.521253  2 N  px         
     7     -0.480909  1 N  px                16     -0.480909  2 N  px         
     4     -0.426855  1 N  py                13     -0.426855  2 N  py         
     8      0.393818  1 N  py                17      0.393818  2 N  py         

 Vector   13  Occ=0.000000D+00  E= 8.455626D-01  Symmetry=eu
              MO Center= -6.5D-16, -8.0D-16,  1.2D-15, r^2= 1.8D+00
   Bfn.  Coefficient  Atom+Function         Bfn.  Coefficient  Atom+Function  
  ----- ------------  ---------------      ----- ------------  ---------------
     4      0.521253  1 N  py                13      0.521253  2 N  py         
     8     -0.480909  1 N  py                17     -0.480909  2 N  py         
     3      0.426855  1 N  px                12      0.426855  2 N  px         
     7     -0.393818  1 N  px                16     -0.393818  2 N  px         

 Vector   14  Occ=0.000000D+00  E= 9.453446D-01  Symmetry=a1g
              MO Center=  6.8D-16,  8.3D-16, -6.1D-15, r^2= 1.9D+00
   Bfn.  Coefficient  Atom+Function         Bfn.  Coefficient  Atom+Function  
  ----- ------------  ---------------      ----- ------------  ---------------
     2      1.029865  1 N  s                 11      1.029865  2 N  s          
     6     -0.904224  1 N  s                 15     -0.904224  2 N  s          
     5     -0.269716  1 N  pz                14      0.269716  2 N  pz         
     9      0.178054  1 N  pz                18     -0.178054  2 N  pz         

 Vector   15  Occ=0.000000D+00  E= 1.012647D+00  Symmetry=eg
              MO Center= -3.9D-15, -8.2D-16,  5.6D-17, r^2= 2.0D+00
   Bfn.  Coefficient  Atom+Function         Bfn.  Coefficient  Atom+Function  
  ----- ------------  ---------------      ----- ------------  ---------------
     7      1.128246  1 N  px                16     -1.128246  2 N  px         
     3     -0.722651  1 N  px                12      0.722651  2 N  px         
     8      0.234254  1 N  py                17     -0.234254  2 N  py         
     4     -0.150042  1 N  py                13      0.150042  2 N  py         

 Vector   16  Occ=0.000000D+00  E= 1.012647D+00  Symmetry=eg
              MO Center= -4.1D-17,  2.0D-16, -9.4D-16, r^2= 2.0D+00
   Bfn.  Coefficient  Atom+Function         Bfn.  Coefficient  Atom+Function  
  ----- ------------  ---------------      ----- ------------  ---------------
     8      1.128246  1 N  py                17     -1.128246  2 N  py         
     4     -0.722651  1 N  py                13      0.722651  2 N  py         
     7     -0.234254  1 N  px                16      0.234254  2 N  px         
     3      0.150042  1 N  px                12     -0.150042  2 N  px         

 Vector   17  Occ=0.000000D+00  E= 1.166695D+00  Symmetry=a2u
              MO Center=  3.7D-15,  7.8D-16,  5.6D-17, r^2= 1.3D+00
   Bfn.  Coefficient  Atom+Function         Bfn.  Coefficient  Atom+Function  
  ----- ------------  ---------------      ----- ------------  ---------------
     6      2.333091  1 N  s                 15     -2.333091  2 N  s          
     5      0.870244  1 N  pz                14      0.870244  2 N  pz         
     9      0.584291  1 N  pz                18      0.584291  2 N  pz         
     2     -0.396083  1 N  s                 11      0.396083  2 N  s          


 center of mass
 --------------
 x =   0.00000000 y =   0.00000000 z =   0.00000000

 moments of inertia (a.u.)
 ------------------
          29.657604816320           0.000000000000           0.000000000000
           0.000000000000          29.657604816320           0.000000000000
           0.000000000000           0.000000000000           0.000000000000

     Multipole analysis of the density
     ---------------------------------

     L   x y z        total         alpha         beta         nuclear
     -   - - -        -----         -----         ----         -------
     0   0 0 0     -0.000000     -7.000000     -7.000000     14.000000

     1   1 0 0      0.000000      0.000000      0.000000      0.000000
     1   0 1 0     -0.000000     -0.000000     -0.000000      0.000000
     1   0 0 1     -0.000000     -0.000000     -0.000000      0.000000

     2   2 0 0     -7.632284     -3.816142     -3.816142      0.000000
     2   1 1 0     -0.000000     -0.000000     -0.000000      0.000000
     2   1 0 1     -0.000000     -0.000000     -0.000000      0.000000
     2   0 2 0     -7.632284     -3.816142     -3.816142      0.000000
     2   0 1 1     -0.000000     -0.000000     -0.000000      0.000000
     2   0 0 2     -9.325999    -12.075775    -12.075775     14.825551


 Parallel integral file used       1 records with       0 large values

 Line search: 
     step= 1.00 grad=-8.7D-07 hess= 4.5D-07 energy=   -108.868005 mode=accept  
 new step= 1.00                   predicted energy=   -108.868005

          --------
          Step   2
          --------


                         Geometry "geometry" -> "geometry"
                         ---------------------------------

 Output coordinates in angstroms (scale by  1.889725989 to convert to a.u.)

  No.       Tag          Charge          X              Y              Z
 ---- ---------------- ---------- -------------- -------------- --------------
    1 N                    7.0000     0.00000000     0.00000000    -0.54455603
    2 N                    7.0000     0.00000000     0.00000000     0.54455603

      Atomic Mass 
      ----------- 

      N                 14.003070


 Effective nuclear repulsion energy (a.u.)      23.8080965521

            Nuclear Dipole moment (a.u.) 
            ----------------------------
        X                 Y               Z
 ---------------- ---------------- ----------------
     0.0000000000     0.0000000000     0.0000000000

      Symmetry information
      --------------------

 Group name             D4h       
 Group number             28
 Group order              16
 No. of unique centers     1

      Symmetry unique atoms

     1


                                 NWChem DFT Module
                                 -----------------


                                  N2 dft optimize



  The DFT is already converged 

         Total DFT energy =   -108.868005025426



                            NWChem DFT Gradient Module
                            --------------------------


                                  N2 dft optimize



  charge          =   0.00
  wavefunction    = closed shell

  Using symmetry


                         DFT ENERGY GRADIENTS

    atom               coordinates                        gradient
                 x          y          z           x          y          z
   1 N       0.000000   0.000000  -1.029062    0.000000   0.000000   0.000048
   2 N       0.000000   0.000000   1.029062    0.000000   0.000000  -0.000048

                 ----------------------------------------
                 |  Time  |  1-e(secs)   |  2-e(secs)   |
                 ----------------------------------------
                 |  CPU   |       0.00   |       0.03   |
                 ----------------------------------------
                 |  WALL  |       0.00   |       0.03   |
                 ----------------------------------------

  Step       Energy      Delta E   Gmax     Grms     Xrms     Xmax   Walltime
  ---- ---------------- -------- -------- -------- -------- -------- --------
@    2    -108.86800503 -4.2D-07  0.00005  0.00005  0.00020  0.00035      0.8
                                     ok       ok       ok       ok  



                                Z-matrix (autoz)
                                -------- 

 Units are Angstrom for bonds and degrees for angles

      Type          Name      I     J     K     L     M      Value     Gradient
      ----------- --------  ----- ----- ----- ----- ----- ---------- ----------
    1 Stretch                  1     2                       1.08911   -0.00005


      ----------------------
      Optimization converged
      ----------------------


  Step       Energy      Delta E   Gmax     Grms     Xrms     Xmax   Walltime
[...]
       Tag                 Description            Shells   Functions and Types
 ---------------- ------------------------------  ------  ---------------------
 N                           6-311G                  7       13   4s3p


  xc_inp: hfexch multiplicative factor not found.

                                 NWChem DFT Module
                                 -----------------


                                   N2 dft energy


  Caching 1-el integrals 
  itol2e modified to match energy
  convergence criterion.

            General Information
            -------------------
          SCF calculation type: DFT
          Wavefunction type:  closed shell.
          No. of atoms     :     2
          No. of electrons :    14
           Alpha electrons :     7
            Beta electrons :     7
          Charge           :     0
          Spin multiplicity:     1
          Use of symmetry is: on ; symmetry adaption is: on 
          Maximum number of iterations:  30
          AO basis - number of functions:    26
                     number of shells:    14
          Convergence on energy requested: 1.00D-07
          Convergence on density requested: 1.00D-05
          Convergence on gradient requested: 5.00D-04

              XC Information
              --------------
                     Hartree-Fock (Exact) Exchange  1.000          

          Convergence Information
          -----------------------
          Convergence aids based upon iterative change in 
          total energy or number of iterations. 
          Levelshifting, if invoked, occurs when the 
          HOMO/LUMO gap drops below (HL_TOL): 1.00D-02
          DIIS, if invoked, will attempt to extrapolate 
          using up to (NFOCK): 10 stored Fock matrices.

                    Damping( 0%)  Levelshifting(0.5)       DIIS
                  --------------- ------------------- ---------------
          dE  on:    start            ASAP                start   
          dE off:    2 iters         30 iters            30 iters 


      Screening Tolerance Information
      -------------------------------
          Density screening/tol_rho: 1.00D-11
          AO Gaussian exp screening on grid/accAOfunc:  16
          CD Gaussian exp screening on grid/accCDfunc:  20
          XC Gaussian exp screening on grid/accXCfunc:  20
          Schwarz screening/accCoul: 1.00D-08


 !! nbf/nmo/basis-name mismatch 
           nbf=  26 nbf_file=  38
           nmo=  26nmo_file=  38
           basis="ao basis" basis_file="ao basis"

  Either an incorrect movecs file was specified, or linear dependence has changed,
  or the basis name was changed. 

 Loading old vectors from job with title :

N2 dft freq


  Load of old vectors failed.   Forcing atomic density guess


      Superposition of Atomic Density Guess
      -------------------------------------

 Sum of atomic energies:        -108.61335984

      Non-variational initial energy
      ------------------------------

 Total energy =    -109.146777
 1-e energy   =    -194.302687
 2-e energy   =      61.347813
 HOMO         =      -0.424648
 LUMO         =       0.031353


      Symmetry analysis of molecular orbitals - initial
      -------------------------------------------------

  Numbering of irreducible representations: 

     1 a1g         2 a1u         3 a2g         4 a2u         5 b1g     
     6 b1u         7 b2g         8 b2u         9 eg         10 eu      

  Orbital symmetries:

     1 a1g         2 a2u         3 a1g         4 a2u         5 eu      
     6 eu          7 a1g         8 eg          9 eg         10 a2u     
    11 a1g        12 eu         13 eu         14 a1g        15 eg      
    16 eg         17 a2u     

   Time after variat. SCF:      2.5
   Time prior to 1st pass:      2.5

 #quartets = 3.786D+03 #integrals = 1.302D+04 #direct =  0.0% #cached =100.0%


 Integral file          = ./N2.aoints.0
 Record size in doubles =  65536        No. of integs per rec  =  43688
 Max. records in memory =      2        Max. records in file   = 185863
 No. of bits per label  =      8        No. of bits per value  =     64


           Memory utilization after 1st SCF pass: 
           Heap Space remaining (MW):       32.64            32635470
          Stack Space remaining (MW):       32.77            32767751

   convergence    iter        energy       DeltaE   RMS-Dens  Diis-err    time
 ---------------- ----- ----------------- --------- --------- ---------  ------
 d= 0,ls=0.0,diis     1   -108.8827871353 -1.33D+02  8.37D-03  8.90D-02     2.5
 d= 0,ls=0.0,diis     2   -108.8938924034 -1.11D-02  3.00D-03  4.82D-03     2.5
 d= 0,ls=0.0,diis     3   -108.8945090241 -6.17D-04  6.54D-04  2.92D-04     2.5
 d= 0,ls=0.0,diis     4   -108.8945570395 -4.80D-05  9.33D-05  4.23D-06     2.6
 d= 0,ls=0.0,diis     5   -108.8945579046 -8.65D-07  6.79D-06  4.30D-08     2.6
 d= 0,ls=0.0,diis     6   -108.8945579118 -7.19D-09  1.42D-06  6.97D-10     2.6


         Total DFT energy =     -108.894557911782
      One electron energy =     -194.216371009860
           Coulomb energy =       74.593111650224
    Exchange-Corr. energy =      -13.079395104216
 Nuclear repulsion energy =       23.808096552071

 Numeric. integr. density =        0.000000000000

     Total iterative time =      0.2s



                  Occupations of the irreducible representations
                  ----------------------------------------------

                     irrep           alpha         beta
                     --------     --------     --------
                     a1g               3.0          3.0
                     a1u               0.0          0.0
                     a2g               0.0          0.0
                     a2u               2.0          2.0
                     b1g               0.0          0.0
                     b1u               0.0          0.0
                     b2g               0.0          0.0
                     b2u               0.0          0.0
                     eg                0.0          0.0
                     eu                2.0          2.0


                       DFT Final Molecular Orbital Analysis
                       ------------------------------------

 Vector    1  Occ=2.000000D+00  E=-1.570631D+01  Symmetry=a1g
              MO Center=  0.0D+00,  0.0D+00, -1.0D-16, r^2= 3.2D-01
   Bfn.  Coefficient  Atom+Function         Bfn.  Coefficient  Atom+Function  
  ----- ------------  ---------------      ----- ------------  ---------------
     1      0.394228  1 N  s                 14      0.394228  2 N  s          
     2      0.330998  1 N  s                 15      0.330998  2 N  s          

 Vector    2  Occ=2.000000D+00  E=-1.570260D+01  Symmetry=a2u
              MO Center= -7.4D-19,  3.6D-18,  6.9D-17, r^2= 3.2D-01
   Bfn.  Coefficient  Atom+Function         Bfn.  Coefficient  Atom+Function  
  ----- ------------  ---------------      ----- ------------  ---------------
     1      0.394434  1 N  s                 14     -0.394434  2 N  s          
     2      0.331445  1 N  s                 15     -0.331445  2 N  s          

 Vector    3  Occ=2.000000D+00  E=-1.530591D+00  Symmetry=a1g
              MO Center= -1.3D-39, -1.4D-39, -2.8D-17, r^2= 4.3D-01
   Bfn.  Coefficient  Atom+Function         Bfn.  Coefficient  Atom+Function  
  ----- ------------  ---------------      ----- ------------  ---------------
     6      0.411399  1 N  s                 19      0.411399  2 N  s          
     9      0.162891  1 N  pz                22     -0.162891  2 N  pz         

 Vector    4  Occ=2.000000D+00  E=-7.725087D-01  Symmetry=a2u
              MO Center= -1.1D-17,  3.3D-17, -1.6D-15, r^2= 1.3D+00
   Bfn.  Coefficient  Atom+Function         Bfn.  Coefficient  Atom+Function  
  ----- ------------  ---------------      ----- ------------  ---------------
    10      0.523855  1 N  s                 23     -0.523855  2 N  s          
     6      0.402986  1 N  s                 19     -0.402986  2 N  s          

 Vector    5  Occ=2.000000D+00  E=-6.307243D-01  Symmetry=a1g
              MO Center= -1.3D-19, -1.8D-19,  1.2D-15, r^2= 1.3D+00
   Bfn.  Coefficient  Atom+Function         Bfn.  Coefficient  Atom+Function  
  ----- ------------  ---------------      ----- ------------  ---------------
    10     -0.327311  1 N  s                 23     -0.327311  2 N  s          
     9      0.317695  1 N  pz                22     -0.317695  2 N  pz         
     5      0.211928  1 N  pz                18     -0.211928  2 N  pz         
    13      0.160428  1 N  pz                26     -0.160428  2 N  pz         

 Vector    6  Occ=2.000000D+00  E=-6.258624D-01  Symmetry=eu
              MO Center=  3.0D-18,  3.4D-18,  1.7D-17, r^2= 9.5D-01
   Bfn.  Coefficient  Atom+Function         Bfn.  Coefficient  Atom+Function  
  ----- ------------  ---------------      ----- ------------  ---------------
     8      0.241954  1 N  py                21      0.241954  2 N  py         
     7      0.214040  1 N  px                20      0.214040  2 N  px         
    12      0.168003  1 N  py                25      0.168003  2 N  py         

 Vector    7  Occ=2.000000D+00  E=-6.258624D-01  Symmetry=eu
              MO Center=  1.2D-18, -1.1D-18, -6.1D-16, r^2= 9.5D-01
   Bfn.  Coefficient  Atom+Function         Bfn.  Coefficient  Atom+Function  
  ----- ------------  ---------------      ----- ------------  ---------------
     7      0.241954  1 N  px                20      0.241954  2 N  px         
     8     -0.214040  1 N  py                21     -0.214040  2 N  py         
    11      0.168003  1 N  px                24      0.168003  2 N  px         

 Vector    8  Occ=0.000000D+00  E= 1.536611D-01  Symmetry=eg
              MO Center= -2.9D-23,  1.2D-23,  4.4D-16, r^2= 1.5D+00
   Bfn.  Coefficient  Atom+Function         Bfn.  Coefficient  Atom+Function  
  ----- ------------  ---------------      ----- ------------  ---------------
    11      0.630293  1 N  px                24     -0.630293  2 N  px         
     7      0.278135  1 N  px                20     -0.278135  2 N  px         
    12     -0.268815  1 N  py                25      0.268815  2 N  py         
     3      0.185320  1 N  px                16     -0.185320  2 N  px         

 Vector    9  Occ=0.000000D+00  E= 1.536611D-01  Symmetry=eg
              MO Center=  1.5D-22,  3.5D-22, -1.1D-16, r^2= 1.5D+00
   Bfn.  Coefficient  Atom+Function         Bfn.  Coefficient  Atom+Function  
  ----- ------------  ---------------      ----- ------------  ---------------
    12      0.630293  1 N  py                25     -0.630293  2 N  py         
     8      0.278135  1 N  py                21     -0.278135  2 N  py         
    11      0.268815  1 N  px                24     -0.268815  2 N  px         
     4      0.185320  1 N  py                17     -0.185320  2 N  py         

 Vector   10  Occ=0.000000D+00  E= 5.587377D-01  Symmetry=a2u
              MO Center=  4.3D-24,  1.0D-23, -8.9D-16, r^2= 3.4D+00
   Bfn.  Coefficient  Atom+Function         Bfn.  Coefficient  Atom+Function  
  ----- ------------  ---------------      ----- ------------  ---------------
    10      4.409880  1 N  s                 23     -4.409880  2 N  s          
    13      2.809293  1 N  pz                26      2.809293  2 N  pz         
     6      0.225140  1 N  s                 19     -0.225140  2 N  s          

 Vector   11  Occ=0.000000D+00  E= 6.745491D-01  Symmetry=a1g
              MO Center= -7.0D-16, -3.5D-16,  1.4D-15, r^2= 2.6D+00
   Bfn.  Coefficient  Atom+Function         Bfn.  Coefficient  Atom+Function  
  ----- ------------  ---------------      ----- ------------  ---------------
    13      1.076424  1 N  pz                26     -1.076424  2 N  pz         
     6     -0.426284  1 N  s                 19     -0.426284  2 N  s          
     9     -0.397240  1 N  pz                22      0.397240  2 N  pz         

 Vector   12  Occ=0.000000D+00  E= 7.037013D-01  Symmetry=eu
              MO Center= -2.7D-17,  3.2D-16,  1.4D-15, r^2= 2.1D+00
   Bfn.  Coefficient  Atom+Function         Bfn.  Coefficient  Atom+Function  
  ----- ------------  ---------------      ----- ------------  ---------------
    12      0.688724  1 N  py                25      0.688724  2 N  py         
     8     -0.595842  1 N  py                21     -0.595842  2 N  py         

 Vector   13  Occ=0.000000D+00  E= 7.037013D-01  Symmetry=eu
              MO Center=  7.8D-16,  6.5D-17,  3.5D-15, r^2= 2.1D+00
   Bfn.  Coefficient  Atom+Function         Bfn.  Coefficient  Atom+Function  
  ----- ------------  ---------------      ----- ------------  ---------------
    11      0.688724  1 N  px                24      0.688724  2 N  px         
     7     -0.595842  1 N  px                20     -0.595842  2 N  px         

 Vector   14  Occ=0.000000D+00  E= 8.166235D-01  Symmetry=a1g
              MO Center= -5.5D-17, -3.6D-17, -8.5D-15, r^2= 2.0D+00
   Bfn.  Coefficient  Atom+Function         Bfn.  Coefficient  Atom+Function  
  ----- ------------  ---------------      ----- ------------  ---------------
     6      1.085895  1 N  s                 19      1.085895  2 N  s          
    10     -0.926035  1 N  s                 23     -0.926035  2 N  s          
     9     -0.235705  1 N  pz                22      0.235705  2 N  pz         
    13      0.225985  1 N  pz                26     -0.225985  2 N  pz         
     2     -0.160507  1 N  s                 15     -0.160507  2 N  s          

 Vector   15  Occ=0.000000D+00  E= 8.894363D-01  Symmetry=eg
              MO Center= -3.9D-21,  4.2D-23, -3.8D-15, r^2= 2.3D+00
   Bfn.  Coefficient  Atom+Function         Bfn.  Coefficient  Atom+Function  
  ----- ------------  ---------------      ----- ------------  ---------------
    11      1.283743  1 N  px                24     -1.283743  2 N  px         
     7     -0.669129  1 N  px                20      0.669129  2 N  px         
     3     -0.186722  1 N  px                16      0.186722  2 N  px         

 Vector   16  Occ=0.000000D+00  E= 8.894363D-01  Symmetry=eg
              MO Center=  1.6D-22,  1.5D-20, -6.7D-16, r^2= 2.3D+00
   Bfn.  Coefficient  Atom+Function         Bfn.  Coefficient  Atom+Function  
  ----- ------------  ---------------      ----- ------------  ---------------
    12      1.283743  1 N  py                25     -1.283743  2 N  py         
     8     -0.669129  1 N  py                21      0.669129  2 N  py         
     4     -0.186722  1 N  py                17      0.186722  2 N  py         

 Vector   17  Occ=0.000000D+00  E= 1.018535D+00  Symmetry=a2u
              MO Center=  1.3D-21, -5.2D-21,  8.6D-15, r^2= 1.5D+00
   Bfn.  Coefficient  Atom+Function         Bfn.  Coefficient  Atom+Function  
  ----- ------------  ---------------      ----- ------------  ---------------
    10      3.332728  1 N  s                 23     -3.332728  2 N  s          
    13      0.988410  1 N  pz                26      0.988410  2 N  pz         
     9      0.837730  1 N  pz                22      0.837730  2 N  pz         
     6     -0.442422  1 N  s                 19      0.442422  2 N  s          
     5      0.204905  1 N  pz                18      0.204905  2 N  pz         


 center of mass
 --------------
 x =   0.00000000 y =   0.00000000 z =   0.00000000

 moments of inertia (a.u.)
 ------------------
          29.657604816320           0.000000000000           0.000000000000
           0.000000000000          29.657604816320           0.000000000000
           0.000000000000           0.000000000000           0.000000000000

     Multipole analysis of the density
     ---------------------------------

     L   x y z        total         alpha         beta         nuclear
     -   - - -        -----         -----         ----         -------
     0   0 0 0     -0.000000     -7.000000     -7.000000     14.000000

     1   1 0 0      0.000000      0.000000      0.000000      0.000000
     1   0 1 0     -0.000000     -0.000000     -0.000000      0.000000
     1   0 0 1      0.000000      0.000000      0.000000      0.000000

     2   2 0 0     -7.610701     -3.805350     -3.805350      0.000000
     2   1 1 0     -0.000000     -0.000000     -0.000000      0.000000
     2   1 0 1     -0.000000     -0.000000     -0.000000      0.000000
     2   0 2 0     -7.610701     -3.805350     -3.805350      0.000000
     2   0 1 1      0.000000      0.000000      0.000000      0.000000
     2   0 0 2     -9.331060    -12.078306    -12.078306     14.825551


 Parallel integral file used       1 records with       0 large values


 Task  times  cpu:        0.3s     wall:        0.3s
 Summary of allocated global arrays
-----------------------------------
  No active global arrays



                         GA Statistics for process    0
                         ------------------------------

       create   destroy   get      put      acc     scatter   gather  read&inc
calls: 1196     1196     6.29e+04 2.01e+04 3.17e+04  146        0     1293     
number of processes/call 1.00e+00 1.00e+00 1.00e+00 1.00e+00 0.00e+00
bytes total:             4.54e+07 9.29e+06 3.52e+07 1.45e+06 0.00e+00 1.03e+04
bytes remote:            0.00e+00 0.00e+00 0.00e+00 0.00e+00 0.00e+00 0.00e+00
Max memory consumed for GA by this process: 631200 bytes
MA_summarize_allocated_blocks: starting scan ...
MA_summarize_allocated_blocks: scan completed: 0 heap blocks, 0 stack blocks
MA usage statistics:

	allocation statistics:
					      heap	     stack
					      ----	     -----
	current number of blocks	         0	         0
	maximum number of blocks	        26	        36
	current total bytes		         0	         0
	maximum total bytes		   5258728	  82741792
	maximum total K-bytes		      5259	     82742
	maximum total M-bytes		         6	        83


                                NWChem Input Module
                                -------------------





                                     CITATION
                                     --------
                Please cite the following reference when publishing
                           results obtained with NWChem:

                 M. Valiev, E.J. Bylaska, N. Govind, K. Kowalski,
              T.P. Straatsma, H.J.J. van Dam, D. Wang, J. Nieplocha,
                        E. Apra, T.L. Windus, W.A. de Jong
                 "NWChem: a comprehensive and scalable open-source
                  solution for large scale molecular simulations"
                      Comput. Phys. Commun. 181, 1477 (2010)
                           doi:10.1016/j.cpc.2010.04.018

                              AUTHORS & CONTRIBUTORS
                              ----------------------
          E. Apra, E. J. Bylaska, W. A. de Jong, N. Govind, K. Kowalski,
       T. P. Straatsma, M. Valiev, H. J. J. van Dam, D. Wang, T. L. Windus,
        J. Hammond, J. Autschbach, K. Bhaskaran-Nair, J. Brabec, K. Lopata,
     F. Aquino, S. Hirata, M. T. Hackler, J. Mullin, P. Nichols, R. Peverati,
    J. Pittner, Y. Zhao, P.-D. Fan, R. J. Harrison, M. Dupuis, D. Silverstein,
    D. M. A. Smith, J. Nieplocha, V. Tipparaju, M. Krishnan, B. E. Van Kuiken,
        A. Vazquez-Mayagoitia, L. Jensen, M. Swart, Q. Wu, T. Van Voorhis,
     A. A. Auer, M. Nooijen, L. D. Crosby, E. Brown, G. Cisneros, G. I. Fann,
     H. Fruchtl, J. Garza, K. Hirao, R. Kendall, J. A. Nichols, K. Tsemekhman,
      K. Wolinski, J. Anchell, D. Bernholdt, P. Borowski, T. Clark, D. Clerc,
      H. Dachsel, M. Deegan, K. Dyall, D. Elwood, E. Glendening, M. Gutowski,
      A. Hess, J. Jaffe, B. Johnson, J. Ju, R. Kobayashi, R. Kutteh, Z. Lin,
   R. Littlefield, X. Long, B. Meng, T. Nakajima, S. Niu, L. Pollack, M. Rosing,
   K. Glaesemann, G. Sandrone, M. Stave, H. Taylor, G. Thomas, J. H. van Lenthe,
                                A. Wong, Z. Zhang.

 Total times  cpu:        2.7s     wall:        3.2s
