 argument  1 = NH3.nw
                                         
                                         


              Northwest Computational Chemistry Package (NWChem) 6.3
              ------------------------------------------------------


                    Environmental Molecular Sciences Laboratory
                       Pacific Northwest National Laboratory
                                Richland, WA 99352

                              Copyright (c) 1994-2012
                       Pacific Northwest National Laboratory
                            Battelle Memorial Institute

             NWChem is an open-source computational chemistry package
                        distributed under the terms of the
                      Educational Community License (ECL) 2.0
             A copy of the license is included with this distribution
                              in the LICENSE.TXT file

                                  ACKNOWLEDGMENT
                                  --------------

            This software and its documentation were developed at the
            EMSL at Pacific Northwest National Laboratory, a multiprogram
            national laboratory, operated for the U.S. Department of Energy
            by Battelle under Contract Number DE-AC05-76RL01830. Support
            for this work was provided by the Department of Energy Office
            of Biological and Environmental Research, Office of Basic
            Energy Sciences, and the Office of Advanced Scientific Computing.


           Job information
           ---------------

    hostname        = ChensPro.local
    program         = nwchem
    date            = Sun Apr 19 22:29:11 2015

    compiled        = Sat_Jul_20_13:52:43_2013
    source          = /Users/shyuepingong/Software/nwchem-6.3
    nwchem branch   = 6.3
    nwchem revision = 24277
    ga revision     = 10379
    input           = NH3.nw
    prefix          = NH3.
    data base       = ./NH3.db
    status          = startup
    nproc           =        1
    time left       =     -1s



           Memory information
           ------------------

    heap     =   32768001 doubles =    250.0 Mbytes
    stack    =   32768001 doubles =    250.0 Mbytes
    global   =   65536000 doubles =    500.0 Mbytes (distinct from heap & stack)
    total    =  131072002 doubles =   1000.0 Mbytes
    verify   = yes
    hardfail = no 


           Directory information
           ---------------------

  0 permanent = .
  0 scratch   = .




                                NWChem Input Module
                                -------------------



 Scaling coordinates for geometry "geometry" by  1.889725989
 (inverse scale =  0.529177249)

 C3V symmetry detected


                             Geometry "geometry" -> ""
                             -------------------------

 Output coordinates in angstroms (scale by  1.889725989 to convert to a.u.)

  No.       Tag          Charge          X              Y              Z
 ---- ---------------- ---------- -------------- -------------- --------------
    1 N                    7.0000     0.00000000     0.00000000     0.10898739
    2 H                    1.0000     0.72683573     0.72683573    -0.25430392
    3 H                    1.0000     0.26604034    -0.99287607    -0.25430392
    4 H                    1.0000    -0.99287607     0.26604034    -0.25430392

      Atomic Mass 
      ----------- 

      N                 14.003070
      H                  1.007825


 Effective nuclear repulsion energy (a.u.)      11.0848640562

            Nuclear Dipole moment (a.u.) 
            ----------------------------
        X                 Y               Z
 ---------------- ---------------- ----------------
     0.0000000000    -0.0000000000     0.0000000000

      Symmetry information
      --------------------

 Group name             C3v       
 Group number             17
 Group order               6
 No. of unique centers     2

      Symmetry unique atoms

     1    2


            XYZ format geometry
            -------------------
     4
 geometry
 N                     0.00000000     0.00000000     0.10898739
 H                     0.72683573     0.72683573    -0.25430392
 H                     0.26604034    -0.99287607    -0.25430392
 H                    -0.99287607     0.26604034    -0.25430392

 ==============================================================================
                                internuclear distances
 ------------------------------------------------------------------------------
       center one      |      center two      | atomic units |  angstroms
 ------------------------------------------------------------------------------
    2 H                |   1 N                |     2.06020  |     1.09021
    3 H                |   1 N                |     2.06020  |     1.09021
    4 H                |   1 N                |     2.06020  |     1.09021
 ------------------------------------------------------------------------------
                         number of included internuclear distances:          3
 ==============================================================================



 ==============================================================================
                                 internuclear angles
 ------------------------------------------------------------------------------
        center 1       |       center 2       |       center 3       |  degrees
 ------------------------------------------------------------------------------
    2 H                |   1 N                |   3 H                |   109.48
    2 H                |   1 N                |   4 H                |   109.48
    3 H                |   1 N                |   4 H                |   109.48
 ------------------------------------------------------------------------------
                            number of included internuclear angles:          3
 ==============================================================================



                                 H3N1 dft optimize
                                 -----------------
  library name resolved from: environment
  library file name is: </Users/chenzheng/Google Drive/nano266/resources/nwchem_basis/>
  
                      Basis "ao basis" -> "" (cartesian)
                      -----
  H (Hydrogen)
  ------------
            Exponent  Coefficients 
       -------------- ---------------------------------------------------------
  1 S  3.38650000E+01  0.025494
  1 S  5.09479000E+00  0.190373
  1 S  1.15879000E+00  0.852161

  2 S  3.25840000E-01  1.000000

  3 S  1.02741000E-01  1.000000

  N (Nitrogen)
  ------------
            Exponent  Coefficients 
       -------------- ---------------------------------------------------------
  1 S  6.29348000E+03  0.001970
  1 S  9.49044000E+02  0.014961
  1 S  2.18776000E+02  0.073501
  1 S  6.36916000E+01  0.248937
  1 S  1.88282000E+01  0.602460
  1 S  2.72023000E+00  0.256202

  2 S  3.06331000E+01  0.111906
  2 S  7.02614000E+00  0.921666
  2 S  2.11205000E+00 -0.002569

  3 P  3.06331000E+01  0.038312
  3 P  7.02614000E+00  0.237403
  3 P  2.11205000E+00  0.817592

  4 S  6.84009000E-01  1.000000

  5 P  6.84009000E-01  1.000000

  6 S  2.00878000E-01  1.000000

  7 P  2.00878000E-01  1.000000

  8 S  6.39000000E-02  1.000000

  9 P  6.39000000E-02  1.000000

 10 D  9.13000000E-01  1.000000



 Summary of "ao basis" -> "" (cartesian)
 ------------------------------------------------------------------------------
       Tag                 Description            Shells   Functions and Types
 ---------------- ------------------------------  ------  ---------------------
 H                          6-311+G*                 3        3   3s
 N                          6-311+G*                10       23   5s4p1d


  xc_inp: hfexch multiplicative factor not found.


                           NWChem Geometry Optimization
                           ----------------------------




                                 H3N1 dft optimize


 maximum gradient threshold         (gmax) =   0.000450
 rms gradient threshold             (grms) =   0.000300
 maximum cartesian step threshold   (xmax) =   0.001800
 rms cartesian step threshold       (xrms) =   0.001200
 fixed trust radius                (trust) =   0.300000
 maximum step size to saddle      (sadstp) =   0.100000
 energy precision                  (eprec) =   5.0D-06
 maximum number of steps          (nptopt) =   20
 initial hessian option           (inhess) =    0
 line search option               (linopt) =    1
 hessian update option            (modupd) =    1
 saddle point option              (modsad) =    0
 initial eigen-mode to follow     (moddir) =    0
 initial variable to follow       (vardir) =    0
 follow first negative mode     (firstneg) =    T
 apply conjugacy                    (opcg) =    F
 source of zmatrix                         =           


          -------------------
          Energy Minimization
          -------------------


 Using diagonal initial Hessian 

          --------
          Step   0
          --------


                         Geometry "geometry" -> "geometry"
                         ---------------------------------

 Output coordinates in angstroms (scale by  1.889725989 to convert to a.u.)

  No.       Tag          Charge          X              Y              Z
 ---- ---------------- ---------- -------------- -------------- --------------
    1 N                    7.0000     0.00000000     0.00000000     0.10898739
    2 H                    1.0000     0.72683573     0.72683573    -0.25430392
    3 H                    1.0000     0.26604034    -0.99287607    -0.25430392
    4 H                    1.0000    -0.99287607     0.26604034    -0.25430392

      Atomic Mass 
      ----------- 

      N                 14.003070
      H                  1.007825


 Effective nuclear repulsion energy (a.u.)      11.0848640562

            Nuclear Dipole moment (a.u.) 
            ----------------------------
        X                 Y               Z
 ---------------- ---------------- ----------------
     0.0000000000    -0.0000000000     0.0000000000

      Symmetry information
      --------------------

 Group name             C3v       
 Group number             17
 Group order               6
 No. of unique centers     2

      Symmetry unique atoms

     1    2


                                 NWChem DFT Module
                                 -----------------


                                 H3N1 dft optimize


  Caching 1-el integrals 
  Rotation of axis 

            General Information
            -------------------
          SCF calculation type: DFT
          Wavefunction type:  closed shell.
          No. of atoms     :     4
          No. of electrons :    10
           Alpha electrons :     5
            Beta electrons :     5
          Charge           :     0
          Spin multiplicity:     1
          Use of symmetry is: on ; symmetry adaption is: on 
          Maximum number of iterations:  30
          AO basis - number of functions:    32
                     number of shells:    19
          Convergence on energy requested: 1.00D-06
          Convergence on density requested: 1.00D-05
          Convergence on gradient requested: 5.00D-04

              XC Information
              --------------
                     Hartree-Fock (Exact) Exchange  1.000          

          Convergence Information
          -----------------------
          Convergence aids based upon iterative change in 
          total energy or number of iterations. 
          Levelshifting, if invoked, occurs when the 
          HOMO/LUMO gap drops below (HL_TOL): 1.00D-02
          DIIS, if invoked, will attempt to extrapolate 
          using up to (NFOCK): 10 stored Fock matrices.

                    Damping( 0%)  Levelshifting(0.5)       DIIS
                  --------------- ------------------- ---------------
          dE  on:    start            ASAP                start   
          dE off:    2 iters         30 iters            30 iters 


      Screening Tolerance Information
      -------------------------------
          Density screening/tol_rho: 1.00D-10
          AO Gaussian exp screening on grid/accAOfunc:  14
          CD Gaussian exp screening on grid/accCDfunc:  20
          XC Gaussian exp screening on grid/accXCfunc:  20
          Schwarz screening/accCoul: 1.00D-08


      Superposition of Atomic Density Guess
      -------------------------------------

 Sum of atomic energies:         -55.80739562

      Non-variational initial energy
      ------------------------------

 Total energy =     -56.015210
 1-e energy   =     -96.737730
 2-e energy   =      29.637656
 HOMO         =      -0.349966
 LUMO         =       0.045352


      Symmetry analysis of molecular orbitals - initial
      -------------------------------------------------

  Numbering of irreducible representations: 

     1 a1          2 a2          3 e       

  Orbital symmetries:

     1 a1          2 a1          3 e           4 e           5 a1      
     6 a1          7 e           8 e           9 a1         10 e       
    11 e          12 a1         13 e          14 e          15 a1      

   Time after variat. SCF:      0.1
   Time prior to 1st pass:      0.1

 #quartets = 6.571D+03 #integrals = 4.227D+04 #direct =  0.0% #cached =100.0%


 Integral file          = ./NH3.aoints.0
 Record size in doubles =  65536        No. of integs per rec  =  43688
 Max. records in memory =      2        Max. records in file   = 184913
 No. of bits per label  =      8        No. of bits per value  =     64


           Memory utilization after 1st SCF pass: 
           Heap Space remaining (MW):       32.63            32634981
          Stack Space remaining (MW):       32.77            32767696

   convergence    iter        energy       DeltaE   RMS-Dens  Diis-err    time
 ---------------- ----- ----------------- --------- --------- ---------  ------
 d= 0,ls=0.0,diis     1    -56.1621456425 -6.72D+01  8.79D-03  1.86D-01     0.1
 d= 0,ls=0.0,diis     2    -56.1800631258 -1.79D-02  2.86D-03  4.69D-02     0.2
 d= 0,ls=0.0,diis     3    -56.1847008912 -4.64D-03  8.36D-04  1.54D-03     0.2
 d= 0,ls=0.0,diis     4    -56.1849462155 -2.45D-04  3.21D-04  4.92D-05     0.2
 d= 0,ls=0.0,diis     5    -56.1849623365 -1.61D-05  1.28D-04  3.16D-06     0.2
  Resetting Diis
 d= 0,ls=0.0,diis     6    -56.1849640547 -1.72D-06  4.15D-05  3.06D-07     0.2
 d= 0,ls=0.0,diis     7    -56.1849642405 -1.86D-07  5.94D-06  5.46D-09     0.2


         Total DFT energy =      -56.184964240538
      One electron energy =      -97.944973066814
           Coulomb energy =       38.228797632335
    Exchange-Corr. energy =       -7.553652862284
 Nuclear repulsion energy =       11.084864056225

 Numeric. integr. density =        0.000000000000

     Total iterative time =      0.1s



                  Occupations of the irreducible representations
                  ----------------------------------------------

                     irrep           alpha         beta
                     --------     --------     --------
                     a1                3.0          3.0
                     a2                0.0          0.0
                     e                 2.0          2.0


                       DFT Final Molecular Orbital Analysis
                       ------------------------------------

 Vector    1  Occ=2.000000D+00  E=-1.556838D+01  Symmetry=a1
              MO Center=  5.9D-18,  3.0D-18,  1.1D-01, r^2= 2.0D-02
   Bfn.  Coefficient  Atom+Function         Bfn.  Coefficient  Atom+Function  
  ----- ------------  ---------------      ----- ------------  ---------------
     1      0.557828  1 N  s                  2      0.468113  1 N  s          

 Vector    2  Occ=2.000000D+00  E=-1.103375D+00  Symmetry=a1
              MO Center= -2.4D-17, -1.5D-16, -4.5D-02, r^2= 7.4D-01
   Bfn.  Coefficient  Atom+Function         Bfn.  Coefficient  Atom+Function  
  ----- ------------  ---------------      ----- ------------  ---------------
     6      0.477550  1 N  s                 10      0.418358  1 N  s          
     2     -0.176307  1 N  s          

 Vector    3  Occ=2.000000D+00  E=-6.045899D-01  Symmetry=e
              MO Center=  1.9D-01,  1.1D-01, -5.2D-02, r^2= 1.1D+00
   Bfn.  Coefficient  Atom+Function         Bfn.  Coefficient  Atom+Function  
  ----- ------------  ---------------      ----- ------------  ---------------
     8      0.269620  1 N  py                25      0.220498  2 H  s          
     7      0.203083  1 N  px                12      0.197364  1 N  py         
    24      0.161641  2 H  s                  4      0.157178  1 N  py         

 Vector    4  Occ=2.000000D+00  E=-6.045899D-01  Symmetry=e
              MO Center= -1.9D-01, -1.1D-01, -5.2D-02, r^2= 1.1D+00
   Bfn.  Coefficient  Atom+Function         Bfn.  Coefficient  Atom+Function  
  ----- ------------  ---------------      ----- ------------  ---------------
     7      0.269620  1 N  px                31     -0.206475  4 H  s          
     8     -0.203083  1 N  py                11      0.197364  1 N  px         
    28      0.175438  3 H  s                  3      0.157178  1 N  px         
    30     -0.151362  4 H  s          

 Vector    5  Occ=2.000000D+00  E=-4.164080D-01  Symmetry=a1
              MO Center= -3.9D-17, -6.0D-17,  2.2D-01, r^2= 9.9D-01
   Bfn.  Coefficient  Atom+Function         Bfn.  Coefficient  Atom+Function  
  ----- ------------  ---------------      ----- ------------  ---------------
    13      0.436283  1 N  pz                 9      0.387406  1 N  pz         
     5      0.248850  1 N  pz                 6      0.171480  1 N  s          
    10      0.169762  1 N  s          

 Vector    6  Occ=0.000000D+00  E= 1.075276D-01  Symmetry=a1
              MO Center=  8.3D-16,  8.3D-16, -9.0D-01, r^2= 5.2D+00
   Bfn.  Coefficient  Atom+Function         Bfn.  Coefficient  Atom+Function  
  ----- ------------  ---------------      ----- ------------  ---------------
    14      3.339104  1 N  s                 26     -0.923277  2 H  s          
    29     -0.923277  3 H  s                 32     -0.923277  4 H  s          
    10     -0.862469  1 N  s                 17     -0.814778  1 N  pz         
    13      0.184565  1 N  pz                25      0.163559  2 H  s          
    28      0.163559  3 H  s                 31      0.163559  4 H  s          

 Vector    7  Occ=0.000000D+00  E= 1.645415D-01  Symmetry=e
              MO Center= -8.5D-02, -4.4D-01,  4.3D-01, r^2= 7.2D+00
   Bfn.  Coefficient  Atom+Function         Bfn.  Coefficient  Atom+Function  
  ----- ------------  ---------------      ----- ------------  ---------------
    15      1.670475  1 N  px                26     -1.077937  2 H  s          
    16      0.884355  1 N  py                32      0.826212  4 H  s          
    11     -0.376009  1 N  px                29      0.251724  3 H  s          
    12     -0.199060  1 N  py         

 Vector    8  Occ=0.000000D+00  E= 1.645415D-01  Symmetry=e
              MO Center=  8.5D-02,  4.4D-01,  4.3D-01, r^2= 7.2D+00
   Bfn.  Coefficient  Atom+Function         Bfn.  Coefficient  Atom+Function  
  ----- ------------  ---------------      ----- ------------  ---------------
    16      1.670475  1 N  py                29      1.099361  3 H  s          
    15     -0.884355  1 N  px                32     -0.767680  4 H  s          
    12     -0.376009  1 N  py                26     -0.331681  2 H  s          
    11      0.199060  1 N  px         

 Vector    9  Occ=0.000000D+00  E= 1.937970D-01  Symmetry=a1
              MO Center=  5.2D-15,  3.9D-15,  4.1D-01, r^2= 6.6D+00
   Bfn.  Coefficient  Atom+Function         Bfn.  Coefficient  Atom+Function  
  ----- ------------  ---------------      ----- ------------  ---------------
    17      1.497957  1 N  pz                14     -1.192249  1 N  s          
    26      0.858141  2 H  s                 29      0.858141  3 H  s          
    32      0.858141  4 H  s                 10     -0.752039  1 N  s          
    13     -0.434787  1 N  pz         

 Vector   10  Occ=0.000000D+00  E= 2.546336D-01  Symmetry=e
              MO Center= -1.9D-01,  4.5D-01, -2.4D-01, r^2= 4.5D+00
   Bfn.  Coefficient  Atom+Function         Bfn.  Coefficient  Atom+Function  
  ----- ------------  ---------------      ----- ------------  ---------------
    32     -2.647957  4 H  s                 26      2.431096  2 H  s          
    15     -1.403530  1 N  px                11     -0.727926  1 N  px         
    16     -0.266988  1 N  py                29      0.216861  3 H  s          

 Vector   11  Occ=0.000000D+00  E= 2.546336D-01  Symmetry=e
              MO Center=  1.9D-01, -4.5D-01, -2.4D-01, r^2= 4.5D+00
   Bfn.  Coefficient  Atom+Function         Bfn.  Coefficient  Atom+Function  
  ----- ------------  ---------------      ----- ------------  ---------------
    29      2.932393  3 H  s                 26     -1.654004  2 H  s          
    16      1.403530  1 N  py                32     -1.278389  4 H  s          
    12      0.727926  1 N  py                15     -0.266988  1 N  px         

 Vector   12  Occ=0.000000D+00  E= 2.824703D-01  Symmetry=a1
              MO Center= -3.0D-15, -2.3D-15, -2.5D-02, r^2= 5.9D+00
   Bfn.  Coefficient  Atom+Function         Bfn.  Coefficient  Atom+Function  
  ----- ------------  ---------------      ----- ------------  ---------------
    14      6.315134  1 N  s                 26     -3.006909  2 H  s          
    29     -3.006909  3 H  s                 32     -3.006909  4 H  s          
    10      1.172780  1 N  s                 17     -0.917176  1 N  pz         
    13     -0.554302  1 N  pz         

 Vector   13  Occ=0.000000D+00  E= 6.330198D-01  Symmetry=e
              MO Center= -1.4D-01,  6.6D-02, -1.8D-03, r^2= 3.7D+00
   Bfn.  Coefficient  Atom+Function         Bfn.  Coefficient  Atom+Function  
  ----- ------------  ---------------      ----- ------------  ---------------
    32      2.896465  4 H  s                 31     -1.777466  4 H  s          
    26     -1.683144  2 H  s                 15      1.602848  1 N  px         
    29     -1.213321  3 H  s                 11     -1.061961  1 N  px         
    25      1.032890  2 H  s                 28      0.744575  3 H  s          
    16     -0.272537  1 N  py                12      0.180569  1 N  py         

 Vector   14  Occ=0.000000D+00  E= 6.330198D-01  Symmetry=e
              MO Center=  1.4D-01, -6.6D-02, -1.8D-03, r^2= 3.7D+00
   Bfn.  Coefficient  Atom+Function         Bfn.  Coefficient  Atom+Function  
  ----- ------------  ---------------      ----- ------------  ---------------
    29      2.644038  3 H  s                 26     -2.372786  2 H  s          
    28     -1.622560  3 H  s                 16      1.602848  1 N  py         
    25      1.456101  2 H  s                 12     -1.061961  1 N  py         
    15      0.272537  1 N  px                32     -0.271252  4 H  s          
    11     -0.180569  1 N  px                 8     -0.167145  1 N  py         

 Vector   15  Occ=0.000000D+00  E= 7.440637D-01  Symmetry=a1
              MO Center= -1.4D-14,  2.2D-14, -4.8D-01, r^2= 3.4D+00
   Bfn.  Coefficient  Atom+Function         Bfn.  Coefficient  Atom+Function  
  ----- ------------  ---------------      ----- ------------  ---------------
    14      4.788057  1 N  s                 26     -2.730674  2 H  s          
    29     -2.730674  3 H  s                 32     -2.730674  4 H  s          
    25      1.479934  2 H  s                 28      1.479934  3 H  s          
    31      1.479934  4 H  s                 17     -1.076283  1 N  pz         
    13      0.567610  1 N  pz                10     -0.544690  1 N  s          


 center of mass
 --------------
 x =   0.00000000 y =  -0.00000000 z =   0.08404789

 moments of inertia (a.u.)
 ------------------
           6.875916168729           0.000000000000           0.000000000000
           0.000000000000           6.875916168729           0.000000000000
           0.000000000000           0.000000000000          11.407922994090

     Multipole analysis of the density
     ---------------------------------

     L   x y z        total         alpha         beta         nuclear
     -   - - -        -----         -----         ----         -------
     0   0 0 0     -0.000000     -5.000000     -5.000000     10.000000

     1   1 0 0      0.000000      0.000000      0.000000      0.000000
     1   0 1 0      0.000000      0.000000      0.000000     -0.000000
     1   0 0 1     -0.683999     -0.342000     -0.342000      0.000000

     2   2 0 0     -4.520034     -5.089854     -5.089854      5.659675
     2   1 1 0      0.000000      0.000000      0.000000     -0.000000
     2   1 0 1     -0.000000     -0.000000     -0.000000      0.000000
     2   0 2 0     -4.520034     -5.089854     -5.089854      5.659675
     2   0 1 1     -0.000000     -0.000000     -0.000000      0.000000
     2   0 0 2     -7.375103     -4.182428     -4.182428      0.989753


 Parallel integral file used       1 records with       0 large values



                            NWChem DFT Gradient Module
                            --------------------------


                                 H3N1 dft optimize



  charge          =   0.00
  wavefunction    = closed shell

  Using symmetry


                         DFT ENERGY GRADIENTS

    atom               coordinates                        gradient
                 x          y          z           x          y          z
   1 N       0.000000   0.000000   0.205956    0.000000   0.000000   0.050598
   2 H       1.373520   1.373520  -0.480565    0.047302   0.047302  -0.016866
   3 H       0.502743  -1.876264  -0.480565    0.017314  -0.064616  -0.016866
   4 H      -1.876264   0.502743  -0.480565   -0.064616   0.017314  -0.016866

                 ----------------------------------------
                 |  Time  |  1-e(secs)   |  2-e(secs)   |
                 ----------------------------------------
                 |  CPU   |       0.00   |       0.09   |
                 ----------------------------------------
                 |  WALL  |       0.00   |       0.10   |
                 ----------------------------------------

@ Step       Energy      Delta E   Gmax     Grms     Xrms     Xmax   Walltime
@ ---- ---------------- -------- -------- -------- -------- -------- --------
@    0     -56.18496424  0.0D+00  0.06462  0.03746  0.00000  0.00000      0.4
                                                                    


                                 NWChem DFT Module
                                 -----------------


                                 H3N1 dft optimize


  Caching 1-el integrals 
  Rotation of axis 

            General Information
            -------------------
          SCF calculation type: DFT
          Wavefunction type:  closed shell.
          No. of atoms     :     4
          No. of electrons :    10
           Alpha electrons :     5
            Beta electrons :     5
          Charge           :     0
          Spin multiplicity:     1
          Use of symmetry is: on ; symmetry adaption is: on 
          Maximum number of iterations:  30
          AO basis - number of functions:    32
                     number of shells:    19
          Convergence on energy requested: 1.00D-06
          Convergence on density requested: 1.00D-05
          Convergence on gradient requested: 5.00D-04

              XC Information
              --------------
                     Hartree-Fock (Exact) Exchange  1.000          

          Convergence Information
          -----------------------
          Convergence aids based upon iterative change in 
          total energy or number of iterations. 
          Levelshifting, if invoked, occurs when the 
          HOMO/LUMO gap drops below (HL_TOL): 1.00D-02
          DIIS, if invoked, will attempt to extrapolate 
          using up to (NFOCK): 10 stored Fock matrices.

                    Damping( 0%)  Levelshifting(0.5)       DIIS
                  --------------- ------------------- ---------------
          dE  on:    start            ASAP                start   
          dE off:    2 iters         30 iters            30 iters 


      Screening Tolerance Information
      -------------------------------
          Density screening/tol_rho: 1.00D-10
          AO Gaussian exp screening on grid/accAOfunc:  14
          CD Gaussian exp screening on grid/accCDfunc:  20
          XC Gaussian exp screening on grid/accXCfunc:  20
          Schwarz screening/accCoul: 1.00D-08


 Loading old vectors from job with title :

H3N1 dft optimize


      Symmetry analysis of molecular orbitals - initial
      -------------------------------------------------

  Numbering of irreducible representations: 

     1 a1          2 a2          3 e       

  Orbital symmetries:

     1 a1          2 a1          3 e           4 e           5 a1      
     6 a1          7 e           8 e           9 a1         10 e       
    11 e          12 a1         13 e          14 e          15 a1      

   Time after variat. SCF:      0.3
   Time prior to 1st pass:      0.3

 #quartets = 6.571D+03 #integrals = 4.227D+04 #direct =  0.0% #cached =100.0%


 Integral file          = ./NH3.aoints.0
 Record size in doubles =  65536        No. of integs per rec  =  43688
 Max. records in memory =      2        Max. records in file   = 184913
 No. of bits per label  =      8        No. of bits per value  =     64


           Memory utilization after 1st SCF pass: 
           Heap Space remaining (MW):       32.63            32634981
          Stack Space remaining (MW):       32.77            32767696

   convergence    iter        energy       DeltaE   RMS-Dens  Diis-err    time
 ---------------- ----- ----------------- --------- --------- ---------  ------
 d= 0,ls=0.0,diis     1    -56.1987410637 -6.83D+01  3.88D-03  5.22D-02     0.4
 d= 0,ls=0.0,diis     2    -56.2037860826 -5.05D-03  1.36D-03  1.12D-02     0.4
 d= 0,ls=0.0,diis     3    -56.2048086235 -1.02D-03  4.39D-04  4.62D-04     0.4
 d= 0,ls=0.0,diis     4    -56.2048870725 -7.84D-05  2.24D-04  1.85D-05     0.4
 d= 0,ls=0.0,diis     5    -56.2048955840 -8.51D-06  8.40D-05  1.47D-06     0.4
 d= 0,ls=0.0,diis     6    -56.2048963211 -7.37D-07  1.36D-05  3.03D-08     0.4
 d= 0,ls=0.0,diis     7    -56.2048963363 -1.52D-08  2.61D-06  1.52D-09     0.4


         Total DFT energy =      -56.204896336295
      One electron energy =      -99.767972725207
           Coulomb energy =       39.171681767631
    Exchange-Corr. energy =       -7.674994475648
 Nuclear repulsion energy =       12.066389096929

 Numeric. integr. density =        0.000000000000

     Total iterative time =      0.1s



                  Occupations of the irreducible representations
                  ----------------------------------------------

                     irrep           alpha         beta
                     --------     --------     --------
                     a1                3.0          3.0
                     a2                0.0          0.0
                     e                 2.0          2.0


                       DFT Final Molecular Orbital Analysis
                       ------------------------------------

 Vector    1  Occ=2.000000D+00  E=-1.553985D+01  Symmetry=a1
              MO Center= -2.4D-17,  8.0D-18,  9.2D-02, r^2= 2.0D-02
   Bfn.  Coefficient  Atom+Function         Bfn.  Coefficient  Atom+Function  
  ----- ------------  ---------------      ----- ------------  ---------------
     1      0.557691  1 N  s                  2      0.467944  1 N  s          

 Vector    2  Occ=2.000000D+00  E=-1.146677D+00  Symmetry=a1
              MO Center= -1.6D-17,  1.9D-16, -7.4D-02, r^2= 7.0D-01
   Bfn.  Coefficient  Atom+Function         Bfn.  Coefficient  Atom+Function  
  ----- ------------  ---------------      ----- ------------  ---------------
     6      0.476328  1 N  s                 10      0.394980  1 N  s          
     2     -0.175779  1 N  s          

 Vector    3  Occ=2.000000D+00  E=-6.401847D-01  Symmetry=e
              MO Center= -2.3D-02, -1.9D-01, -5.8D-02, r^2= 9.5D-01
   Bfn.  Coefficient  Atom+Function         Bfn.  Coefficient  Atom+Function  
  ----- ------------  ---------------      ----- ------------  ---------------
     8      0.314441  1 N  py                12      0.210334  1 N  py         
    28     -0.209902  3 H  s                  4      0.183874  1 N  py         
    27     -0.167540  3 H  s                  7     -0.152677  1 N  px         

 Vector    4  Occ=2.000000D+00  E=-6.401847D-01  Symmetry=e
              MO Center=  2.3D-02,  1.9D-01, -5.8D-02, r^2= 9.5D-01
   Bfn.  Coefficient  Atom+Function         Bfn.  Coefficient  Atom+Function  
  ----- ------------  ---------------      ----- ------------  ---------------
     7      0.314441  1 N  px                11      0.210334  1 N  px         
    25      0.201988  2 H  s                  3      0.183874  1 N  px         
    24      0.161223  2 H  s                 31     -0.161572  4 H  s          
     8      0.152677  1 N  py         

 Vector    5  Occ=2.000000D+00  E=-4.203995D-01  Symmetry=a1
              MO Center=  3.7D-17, -5.1D-17,  2.3D-01, r^2= 9.4D-01
   Bfn.  Coefficient  Atom+Function         Bfn.  Coefficient  Atom+Function  
  ----- ------------  ---------------      ----- ------------  ---------------
    13      0.445388  1 N  pz                 9      0.392661  1 N  pz         
     5      0.248594  1 N  pz                 6      0.168864  1 N  s          
    10      0.150319  1 N  s          

 Vector    6  Occ=0.000000D+00  E= 1.009648D-01  Symmetry=a1
              MO Center=  5.6D-16,  8.9D-16, -1.1D+00, r^2= 5.5D+00
   Bfn.  Coefficient  Atom+Function         Bfn.  Coefficient  Atom+Function  
  ----- ------------  ---------------      ----- ------------  ---------------
    14      3.936345  1 N  s                 26     -1.240094  2 H  s          
    29     -1.240094  3 H  s                 32     -1.240094  4 H  s          
    17     -0.951622  1 N  pz                10     -0.576917  1 N  s          
    25      0.183047  2 H  s                 28      0.183047  3 H  s          
    31      0.183047  4 H  s          

 Vector    7  Occ=0.000000D+00  E= 1.595016D-01  Symmetry=e
              MO Center=  4.0D-01,  1.9D-01,  4.1D-01, r^2= 7.3D+00
   Bfn.  Coefficient  Atom+Function         Bfn.  Coefficient  Atom+Function  
  ----- ------------  ---------------      ----- ------------  ---------------
    15      1.560558  1 N  px                32      1.190593  4 H  s          
    16     -1.110073  1 N  py                29     -0.979274  3 H  s          
    11     -0.314702  1 N  px                12      0.223857  1 N  py         
    26     -0.211319  2 H  s          

 Vector    8  Occ=0.000000D+00  E= 1.595016D-01  Symmetry=e
              MO Center= -4.0D-01, -1.9D-01,  4.1D-01, r^2= 7.3D+00
   Bfn.  Coefficient  Atom+Function         Bfn.  Coefficient  Atom+Function  
  ----- ------------  ---------------      ----- ------------  ---------------
    16      1.560558  1 N  py                26     -1.252774  2 H  s          
    15      1.110073  1 N  px                29      0.809395  3 H  s          
    32      0.443379  4 H  s                 12     -0.314702  1 N  py         
    11     -0.223857  1 N  px         

 Vector    9  Occ=0.000000D+00  E= 1.977898D-01  Symmetry=a1
              MO Center=  1.6D-16, -2.8D-15,  7.6D-01, r^2= 6.1D+00
   Bfn.  Coefficient  Atom+Function         Bfn.  Coefficient  Atom+Function  
  ----- ------------  ---------------      ----- ------------  ---------------
    17      1.342397  1 N  pz                10     -0.711228  1 N  s          
    13     -0.489533  1 N  pz                26      0.475672  2 H  s          
    29      0.475672  3 H  s                 32      0.475672  4 H  s          
    14     -0.320359  1 N  s          

 Vector   10  Occ=0.000000D+00  E= 2.771148D-01  Symmetry=e
              MO Center= -1.9D-01, -4.5D-01, -2.7D-01, r^2= 4.6D+00
   Bfn.  Coefficient  Atom+Function         Bfn.  Coefficient  Atom+Function  
  ----- ------------  ---------------      ----- ------------  ---------------
    29      3.199224  3 H  s                 32     -2.538541  4 H  s          
    16      1.271659  1 N  py                15     -0.848763  1 N  px         
    12      0.677290  1 N  py                26     -0.660684  2 H  s          
    11     -0.452054  1 N  px         

 Vector   11  Occ=0.000000D+00  E= 2.771148D-01  Symmetry=e
              MO Center=  1.9D-01,  4.5D-01, -2.7D-01, r^2= 4.6D+00
   Bfn.  Coefficient  Atom+Function         Bfn.  Coefficient  Atom+Function  
  ----- ------------  ---------------      ----- ------------  ---------------
    26      3.312700  2 H  s                 32     -2.228519  4 H  s          
    15     -1.271659  1 N  px                29     -1.084181  3 H  s          
    16     -0.848763  1 N  py                11     -0.677290  1 N  px         
    12     -0.452054  1 N  py         

 Vector   12  Occ=0.000000D+00  E= 3.103040D-01  Symmetry=a1
              MO Center= -4.6D-14, -1.0D-14, -2.8D-01, r^2= 5.7D+00
   Bfn.  Coefficient  Atom+Function         Bfn.  Coefficient  Atom+Function  
  ----- ------------  ---------------      ----- ------------  ---------------
    14      6.501391  1 N  s                 26     -3.240637  2 H  s          
    29     -3.240637  3 H  s                 32     -3.240637  4 H  s          
    10      1.819702  1 N  s                 17     -1.042712  1 N  pz         
    13     -0.540047  1 N  pz         

 Vector   13  Occ=0.000000D+00  E= 6.583772D-01  Symmetry=e
              MO Center=  6.1D-03, -8.1D-03,  9.6D-02, r^2= 3.5D+00
   Bfn.  Coefficient  Atom+Function         Bfn.  Coefficient  Atom+Function  
  ----- ------------  ---------------      ----- ------------  ---------------
    32      2.694588  4 H  s                 26     -2.152962  2 H  s          
    31     -1.790207  4 H  s                 15      1.637753  1 N  px         
    25      1.430366  2 H  s                 11     -1.397700  1 N  px         
    29     -0.541626  3 H  s                 28      0.359840  3 H  s          

 Vector   14  Occ=0.000000D+00  E= 6.583772D-01  Symmetry=e
              MO Center= -6.1D-03,  8.1D-03,  9.6D-02, r^2= 3.5D+00
   Bfn.  Coefficient  Atom+Function         Bfn.  Coefficient  Atom+Function  
  ----- ------------  ---------------      ----- ------------  ---------------
    29      2.798734  3 H  s                 26     -1.868429  2 H  s          
    28     -1.859399  3 H  s                 16      1.637753  1 N  py         
    12     -1.397700  1 N  py                25      1.241330  2 H  s          
    32     -0.930306  4 H  s                 31      0.618068  4 H  s          

 Vector   15  Occ=0.000000D+00  E= 7.905277D-01  Symmetry=a1
              MO Center= -2.1D-15, -2.2D-15, -6.2D-01, r^2= 2.8D+00
   Bfn.  Coefficient  Atom+Function         Bfn.  Coefficient  Atom+Function  
  ----- ------------  ---------------      ----- ------------  ---------------
    14      4.235221  1 N  s                 26     -2.333212  2 H  s          
    29     -2.333212  3 H  s                 32     -2.333212  4 H  s          
    25      1.731068  2 H  s                 28      1.731068  3 H  s          
    31      1.731068  4 H  s                 10     -1.650062  1 N  s          
    13      1.025082  1 N  pz                17     -1.011850  1 N  pz         


 center of mass
 --------------
 x =   0.00000000 y =   0.00000000 z =   0.05968007

 moments of inertia (a.u.)
 ------------------
           5.821582173624          -0.000000000000           0.000000000000
          -0.000000000000           5.821582173624           0.000000000000
           0.000000000000           0.000000000000           9.580922358995

     Multipole analysis of the density
     ---------------------------------

     L   x y z        total         alpha         beta         nuclear
     -   - - -        -----         -----         ----         -------
     0   0 0 0     -0.000000     -5.000000     -5.000000     10.000000

     1   1 0 0     -0.000000     -0.000000     -0.000000      0.000000
     1   0 1 0     -0.000000     -0.000000     -0.000000      0.000000
     1   0 0 1     -0.703173     -0.255805     -0.255805     -0.191562

     2   2 0 0     -4.518453     -4.635860     -4.635860      4.753267
     2   1 1 0     -0.000000     -0.000000     -0.000000      0.000000
     2   1 0 1      0.000000      0.000000      0.000000     -0.000000
     2   0 2 0     -4.518453     -4.635860     -4.635860      4.753267
     2   0 1 1      0.000000      0.000000      0.000000     -0.000000
     2   0 0 2     -7.116825     -3.995655     -3.995655      0.874484


 Parallel integral file used       1 records with       0 large values

 Line search: 
     step= 1.00 grad=-3.5D-02 hess= 1.5D-02 energy=    -56.204896 mode=downhill
 new step= 1.17                   predicted energy=    -56.205342

          --------
          Step   1
          --------


                         Geometry "geometry" -> "geometry"
                         ---------------------------------

 Output coordinates in angstroms (scale by  1.889725989 to convert to a.u.)

  No.       Tag          Charge          X              Y              Z
 ---- ---------------- ---------- -------------- -------------- --------------
    1 N                    7.0000     0.00000000     0.00000000     0.08916186
    2 H                    1.0000     0.65556029     0.65556029    -0.24769541
    3 H                    1.0000     0.23995172    -0.89551201    -0.24769541
    4 H                    1.0000    -0.89551201     0.23995172    -0.24769541

      Atomic Mass 
      ----------- 

      N                 14.003070
      H                  1.007825


 Effective nuclear repulsion energy (a.u.)      12.2545325001

            Nuclear Dipole moment (a.u.) 
            ----------------------------
        X                 Y               Z
 ---------------- ---------------- ----------------
    -0.0000000000     0.0000000000    -0.2247889356

      Symmetry information
      --------------------

 Group name             C3v       
 Group number             17
 Group order               6
 No. of unique centers     2

      Symmetry unique atoms

     1    2


                                 NWChem DFT Module
                                 -----------------


                                 H3N1 dft optimize


  Caching 1-el integrals 
  Rotation of axis 

            General Information
            -------------------
          SCF calculation type: DFT
          Wavefunction type:  closed shell.
          No. of atoms     :     4
          No. of electrons :    10
           Alpha electrons :     5
            Beta electrons :     5
          Charge           :     0
          Spin multiplicity:     1
          Use of symmetry is: on ; symmetry adaption is: on 
          Maximum number of iterations:  30
          AO basis - number of functions:    32
                     number of shells:    19
          Convergence on energy requested: 1.00D-06
          Convergence on density requested: 1.00D-05
          Convergence on gradient requested: 5.00D-04

              XC Information
              --------------
                     Hartree-Fock (Exact) Exchange  1.000          

          Convergence Information
          -----------------------
          Convergence aids based upon iterative change in 
          total energy or number of iterations. 
          Levelshifting, if invoked, occurs when the 
          HOMO/LUMO gap drops below (HL_TOL): 1.00D-02
          DIIS, if invoked, will attempt to extrapolate 
          using up to (NFOCK): 10 stored Fock matrices.

                    Damping( 0%)  Levelshifting(0.5)       DIIS
                  --------------- ------------------- ---------------
          dE  on:    start            ASAP                start   
          dE off:    2 iters         30 iters            30 iters 


      Screening Tolerance Information
      -------------------------------
          Density screening/tol_rho: 1.00D-10
          AO Gaussian exp screening on grid/accAOfunc:  14
          CD Gaussian exp screening on grid/accCDfunc:  20
          XC Gaussian exp screening on grid/accXCfunc:  20
          Schwarz screening/accCoul: 1.00D-08


 Loading old vectors from job with title :

H3N1 dft optimize


      Symmetry analysis of molecular orbitals - initial
      -------------------------------------------------

  Numbering of irreducible representations: 

     1 a1          2 a2          3 e       

  Orbital symmetries:

     1 a1          2 a1          3 e           4 e           5 a1      
     6 a1          7 e           8 e           9 a1         10 e       
    11 e          12 a1         13 e          14 e          15 a1      

   Time after variat. SCF:      0.4
   Time prior to 1st pass:      0.4

 #quartets = 6.571D+03 #integrals = 4.227D+04 #direct =  0.0% #cached =100.0%


 Integral file          = ./NH3.aoints.0
 Record size in doubles =  65536        No. of integs per rec  =  43688
 Max. records in memory =      2        Max. records in file   = 184913
 No. of bits per label  =      8        No. of bits per value  =     64


           Memory utilization after 1st SCF pass: 
           Heap Space remaining (MW):       32.63            32634981
          Stack Space remaining (MW):       32.77            32767696

   convergence    iter        energy       DeltaE   RMS-Dens  Diis-err    time
 ---------------- ----- ----------------- --------- --------- ---------  ------
 d= 0,ls=0.0,diis     1    -56.2043662820 -6.85D+01  7.25D-04  1.85D-03     0.5
 d= 0,ls=0.0,diis     2    -56.2045357927 -1.70D-04  2.49D-04  3.84D-04     0.5
 d= 0,ls=0.0,diis     3    -56.2045705831 -3.48D-05  7.75D-05  1.48D-05     0.5
 d= 0,ls=0.0,diis     4    -56.2045730220 -2.44D-06  3.98D-05  5.84D-07     0.5
 d= 0,ls=0.0,diis     5    -56.2045732893 -2.67D-07  1.51D-05  4.73D-08     0.5
 d= 0,ls=0.0,diis     6    -56.2045733127 -2.34D-08  2.29D-06  8.22D-10     0.5


         Total DFT energy =      -56.204573312740
      One electron energy =     -100.109716234047
           Coulomb energy =       39.348289670435
    Exchange-Corr. energy =       -7.697679249262
 Nuclear repulsion energy =       12.254532500134

 Numeric. integr. density =        0.000000000000

     Total iterative time =      0.1s



                  Occupations of the irreducible representations
                  ----------------------------------------------

                     irrep           alpha         beta
                     --------     --------     --------
                     a1                3.0          3.0
                     a2                0.0          0.0
                     e                 2.0          2.0


                       DFT Final Molecular Orbital Analysis
                       ------------------------------------

 Vector    1  Occ=2.000000D+00  E=-1.553459D+01  Symmetry=a1
              MO Center=  1.5D-18, -1.4D-17,  8.9D-02, r^2= 2.0D-02
   Bfn.  Coefficient  Atom+Function         Bfn.  Coefficient  Atom+Function  
  ----- ------------  ---------------      ----- ------------  ---------------
     1      0.557663  1 N  s                  2      0.467910  1 N  s          

 Vector    2  Occ=2.000000D+00  E=-1.155005D+00  Symmetry=a1
              MO Center= -3.9D-18, -8.7D-18, -7.9D-02, r^2= 6.9D-01
   Bfn.  Coefficient  Atom+Function         Bfn.  Coefficient  Atom+Function  
  ----- ------------  ---------------      ----- ------------  ---------------
     6      0.476559  1 N  s                 10      0.390887  1 N  s          
     2     -0.175859  1 N  s          

 Vector    3  Occ=2.000000D+00  E=-6.467202D-01  Symmetry=e
              MO Center= -2.4D-02, -1.9D-01, -5.9D-02, r^2= 9.3D-01
   Bfn.  Coefficient  Atom+Function         Bfn.  Coefficient  Atom+Function  
  ----- ------------  ---------------      ----- ------------  ---------------
     8      0.315816  1 N  py                12      0.207865  1 N  py         
    28     -0.208140  3 H  s                  4      0.184960  1 N  py         
    27     -0.168706  3 H  s                  7     -0.154532  1 N  px         

 Vector    4  Occ=2.000000D+00  E=-6.467202D-01  Symmetry=e
              MO Center=  2.4D-02,  1.9D-01, -5.9D-02, r^2= 9.3D-01
   Bfn.  Coefficient  Atom+Function         Bfn.  Coefficient  Atom+Function  
  ----- ------------  ---------------      ----- ------------  ---------------
     7      0.315816  1 N  px                11      0.207865  1 N  px         
    25      0.200622  2 H  s                  3      0.184960  1 N  px         
    24      0.162612  2 H  s                 31     -0.159888  4 H  s          
     8      0.154532  1 N  py         

 Vector    5  Occ=2.000000D+00  E=-4.212191D-01  Symmetry=a1
              MO Center= -6.1D-17, -2.5D-17,  2.3D-01, r^2= 9.4D-01
   Bfn.  Coefficient  Atom+Function         Bfn.  Coefficient  Atom+Function  
  ----- ------------  ---------------      ----- ------------  ---------------
    13      0.446849  1 N  pz                 9      0.393712  1 N  pz         
     5      0.248533  1 N  pz                 6      0.168306  1 N  s          

 Vector    6  Occ=0.000000D+00  E= 9.967537D-02  Symmetry=a1
              MO Center= -7.8D-16, -1.1D-16, -1.1D+00, r^2= 5.6D+00
   Bfn.  Coefficient  Atom+Function         Bfn.  Coefficient  Atom+Function  
  ----- ------------  ---------------      ----- ------------  ---------------
    14      3.999666  1 N  s                 26     -1.275487  2 H  s          
    29     -1.275487  3 H  s                 32     -1.275487  4 H  s          
    17     -0.962745  1 N  pz                10     -0.529473  1 N  s          
    25      0.184946  2 H  s                 28      0.184946  3 H  s          
    31      0.184946  4 H  s          

 Vector    7  Occ=0.000000D+00  E= 1.586450D-01  Symmetry=e
              MO Center= -1.1D-01, -4.2D-01,  4.1D-01, r^2= 7.3D+00
   Bfn.  Coefficient  Atom+Function         Bfn.  Coefficient  Atom+Function  
  ----- ------------  ---------------      ----- ------------  ---------------
    15      1.663959  1 N  px                26     -1.250130  2 H  s          
    16      0.954303  1 N  py                32      0.918506  4 H  s          
    29      0.331624  3 H  s                 11     -0.329427  1 N  px         
    12     -0.188931  1 N  py         

 Vector    8  Occ=0.000000D+00  E= 1.586450D-01  Symmetry=e
              MO Center=  1.1D-01,  4.2D-01,  4.1D-01, r^2= 7.3D+00
   Bfn.  Coefficient  Atom+Function         Bfn.  Coefficient  Atom+Function  
  ----- ------------  ---------------      ----- ------------  ---------------
    16      1.663959  1 N  py                29      1.252062  3 H  s          
    15     -0.954303  1 N  px                32     -0.913226  4 H  s          
    26     -0.338836  2 H  s                 12     -0.329427  1 N  py         
    11      0.188931  1 N  px         

 Vector    9  Occ=0.000000D+00  E= 1.982411D-01  Symmetry=a1
              MO Center= -9.5D-16, -1.7D-15,  8.0D-01, r^2= 6.1D+00
   Bfn.  Coefficient  Atom+Function         Bfn.  Coefficient  Atom+Function  
  ----- ------------  ---------------      ----- ------------  ---------------
    17      1.321002  1 N  pz                10     -0.692442  1 N  s          
    13     -0.498205  1 N  pz                26      0.419408  2 H  s          
    29      0.419408  3 H  s                 32      0.419408  4 H  s          
    14     -0.200641  1 N  s          

 Vector   10  Occ=0.000000D+00  E= 2.808956D-01  Symmetry=e
              MO Center= -3.4D-01, -3.5D-01, -2.7D-01, r^2= 4.6D+00
   Bfn.  Coefficient  Atom+Function         Bfn.  Coefficient  Atom+Function  
  ----- ------------  ---------------      ----- ------------  ---------------
    29      3.008070  3 H  s                 32     -2.989938  4 H  s          
    16      1.100527  1 N  py                15     -1.089062  1 N  px         
    12      0.588177  1 N  py                11     -0.582050  1 N  px         

 Vector   11  Occ=0.000000D+00  E= 2.808956D-01  Symmetry=e
              MO Center=  3.4D-01,  3.5D-01, -2.7D-01, r^2= 4.6D+00
   Bfn.  Coefficient  Atom+Function         Bfn.  Coefficient  Atom+Function  
  ----- ------------  ---------------      ----- ------------  ---------------
    26      3.462952  2 H  s                 32     -1.747179  4 H  s          
    29     -1.715773  3 H  s                 15     -1.100527  1 N  px         
    16     -1.089062  1 N  py                11     -0.588177  1 N  px         
    12     -0.582050  1 N  py         

 Vector   12  Occ=0.000000D+00  E= 3.154543D-01  Symmetry=a1
              MO Center=  5.6D-15, -5.6D-16, -3.1D-01, r^2= 5.7D+00
   Bfn.  Coefficient  Atom+Function         Bfn.  Coefficient  Atom+Function  
  ----- ------------  ---------------      ----- ------------  ---------------
    14      6.519566  1 N  s                 26     -3.270309  2 H  s          
    29     -3.270309  3 H  s                 32     -3.270309  4 H  s          
    10      1.923950  1 N  s                 17     -1.056974  1 N  pz         
    13     -0.536152  1 N  pz         

 Vector   13  Occ=0.000000D+00  E= 6.619467D-01  Symmetry=e
              MO Center=  3.2D-02, -1.8D-02,  1.1D-01, r^2= 3.5D+00
   Bfn.  Coefficient  Atom+Function         Bfn.  Coefficient  Atom+Function  
  ----- ------------  ---------------      ----- ------------  ---------------
    32      2.802594  4 H  s                 31     -1.894627  4 H  s          
    26     -1.708113  2 H  s                 15      1.622037  1 N  px         
    11     -1.445281  1 N  px                25      1.154729  2 H  s          
    29     -1.094481  3 H  s                 28      0.739898  3 H  s          
    16     -0.222058  1 N  py                12      0.197860  1 N  py         

 Vector   14  Occ=0.000000D+00  E= 6.619467D-01  Symmetry=e
              MO Center= -3.2D-02,  1.8D-02,  1.1D-01, r^2= 3.5D+00
   Bfn.  Coefficient  Atom+Function         Bfn.  Coefficient  Atom+Function  
  ----- ------------  ---------------      ----- ------------  ---------------
    29      2.604258  3 H  s                 26     -2.249977  2 H  s          
    28     -1.760547  3 H  s                 16      1.622037  1 N  py         
    25      1.521044  2 H  s                 12     -1.445281  1 N  py         
    32     -0.354280  4 H  s                 31      0.239503  4 H  s          
    15      0.222058  1 N  px                11     -0.197860  1 N  px         

 Vector   15  Occ=0.000000D+00  E= 7.951807D-01  Symmetry=a1
              MO Center=  4.9D-15,  1.2D-14, -6.5D-01, r^2= 2.7D+00
   Bfn.  Coefficient  Atom+Function         Bfn.  Coefficient  Atom+Function  
  ----- ------------  ---------------      ----- ------------  ---------------
    14      4.041194  1 N  s                 26     -2.209258  2 H  s          
    29     -2.209258  3 H  s                 32     -2.209258  4 H  s          
    10     -1.894531  1 N  s                 25      1.769937  2 H  s          
    28      1.769937  3 H  s                 31      1.769937  4 H  s          
    13      1.112684  1 N  pz                17     -0.983110  1 N  pz         


 center of mass
 --------------
 x =  -0.00000000 y =  -0.00000000 z =   0.05545345

 moments of inertia (a.u.)
 ------------------
           5.647731664484          -0.000000000000          -0.000000000000
          -0.000000000000           5.647731664484          -0.000000000000
          -0.000000000000          -0.000000000000           9.280242536932

     Multipole analysis of the density
     ---------------------------------

     L   x y z        total         alpha         beta         nuclear
     -   - - -        -----         -----         ----         -------
     0   0 0 0     -0.000000     -5.000000     -5.000000     10.000000

     1   1 0 0     -0.000000     -0.000000     -0.000000     -0.000000
     1   0 1 0      0.000000      0.000000      0.000000      0.000000
     1   0 0 1     -0.706088     -0.240650     -0.240650     -0.224789

     2   2 0 0     -4.516595     -4.560345     -4.560345      4.604094
     2   1 1 0      0.000000     -0.000000     -0.000000      0.000000
     2   1 0 1      0.000000      0.000000      0.000000      0.000000
     2   0 2 0     -4.516595     -4.560345     -4.560345      4.604094
     2   0 1 1     -0.000000     -0.000000     -0.000000      0.000000
     2   0 0 2     -7.068894     -3.962453     -3.962453      0.856012


 Parallel integral file used       1 records with       0 large values



                            NWChem DFT Gradient Module
                            --------------------------


                                 H3N1 dft optimize



  charge          =   0.00
  wavefunction    = closed shell

  Using symmetry


                         DFT ENERGY GRADIENTS

    atom               coordinates                        gradient
                 x          y          z           x          y          z
   1 N       0.000000   0.000000   0.168491    0.000000   0.000000  -0.012830
   2 H       1.238829   1.238829  -0.468076   -0.007679  -0.007679   0.004277
   3 H       0.453443  -1.692272  -0.468076   -0.002811   0.010489   0.004277
   4 H      -1.692272   0.453443  -0.468076    0.010489  -0.002811   0.004277

                 ----------------------------------------
                 |  Time  |  1-e(secs)   |  2-e(secs)   |
                 ----------------------------------------
                 |  CPU   |       0.00   |       0.10   |
                 ----------------------------------------
                 |  WALL  |       0.00   |       0.14   |
                 ----------------------------------------

  Step       Energy      Delta E   Gmax     Grms     Xrms     Xmax   Walltime
  ---- ---------------- -------- -------- -------- -------- -------- --------
@    1     -56.20457331 -2.0D-02  0.01283  0.00691  0.09606  0.18399      0.8
                                                                    


                                 NWChem DFT Module
                                 -----------------


                                 H3N1 dft optimize


  Caching 1-el integrals 
  Rotation of axis 

            General Information
            -------------------
          SCF calculation type: DFT
          Wavefunction type:  closed shell.
          No. of atoms     :     4
          No. of electrons :    10
           Alpha electrons :     5
            Beta electrons :     5
          Charge           :     0
          Spin multiplicity:     1
          Use of symmetry is: on ; symmetry adaption is: on 
          Maximum number of iterations:  30
          AO basis - number of functions:    32
                     number of shells:    19
          Convergence on energy requested: 1.00D-06
          Convergence on density requested: 1.00D-05
          Convergence on gradient requested: 5.00D-04

              XC Information
              --------------
                     Hartree-Fock (Exact) Exchange  1.000          

          Convergence Information
          -----------------------
          Convergence aids based upon iterative change in 
          total energy or number of iterations. 
          Levelshifting, if invoked, occurs when the 
          HOMO/LUMO gap drops below (HL_TOL): 1.00D-02
          DIIS, if invoked, will attempt to extrapolate 
          using up to (NFOCK): 10 stored Fock matrices.

                    Damping( 0%)  Levelshifting(0.5)       DIIS
                  --------------- ------------------- ---------------
          dE  on:    start            ASAP                start   
          dE off:    2 iters         30 iters            30 iters 


      Screening Tolerance Information
      -------------------------------
          Density screening/tol_rho: 1.00D-10
          AO Gaussian exp screening on grid/accAOfunc:  14
          CD Gaussian exp screening on grid/accCDfunc:  20
          XC Gaussian exp screening on grid/accXCfunc:  20
          Schwarz screening/accCoul: 1.00D-08


 Loading old vectors from job with title :

H3N1 dft optimize


      Symmetry analysis of molecular orbitals - initial
      -------------------------------------------------

  Numbering of irreducible representations: 

     1 a1          2 a2          3 e       

  Orbital symmetries:

     1 a1          2 a1          3 e           4 e           5 a1      
     6 a1          7 e           8 e           9 a1         10 e       
    11 e          12 a1         13 e          14 e          15 a1      

   Time after variat. SCF:      0.7
   Time prior to 1st pass:      0.7

 #quartets = 6.571D+03 #integrals = 4.227D+04 #direct =  0.0% #cached =100.0%


 Integral file          = ./NH3.aoints.0
 Record size in doubles =  65536        No. of integs per rec  =  43688
 Max. records in memory =      2        Max. records in file   = 184913
 No. of bits per label  =      8        No. of bits per value  =     64


           Memory utilization after 1st SCF pass: 
           Heap Space remaining (MW):       32.63            32634981
          Stack Space remaining (MW):       32.77            32767696

   convergence    iter        energy       DeltaE   RMS-Dens  Diis-err    time
 ---------------- ----- ----------------- --------- --------- ---------  ------
 d= 0,ls=0.0,diis     1    -56.2045772024 -6.83D+01  9.36D-04  2.85D-03     0.7
 d= 0,ls=0.0,diis     2    -56.2048699958 -2.93D-04  3.63D-04  5.93D-04     0.7
 d= 0,ls=0.0,diis     3    -56.2049281798 -5.82D-05  1.73D-04  3.59D-05     0.7
 d= 0,ls=0.0,diis     4    -56.2049352059 -7.03D-06  8.61D-05  1.41D-06     0.7
 d= 0,ls=0.0,diis     5    -56.2049358838 -6.78D-07  1.65D-05  4.08D-08     0.7
 d= 0,ls=0.0,diis     6    -56.2049359075 -2.37D-08  2.65D-06  1.35D-09     0.7


         Total DFT energy =      -56.204935907537
      One electron energy =      -99.750011057428
           Coulomb energy =       39.160448401843
    Exchange-Corr. energy =       -7.674294937972
 Nuclear repulsion energy =       12.058921686020

 Numeric. integr. density =        0.000000000000

     Total iterative time =      0.1s



                  Occupations of the irreducible representations
                  ----------------------------------------------

                     irrep           alpha         beta
                     --------     --------     --------
                     a1                3.0          3.0
                     a2                0.0          0.0
                     e                 2.0          2.0


                       DFT Final Molecular Orbital Analysis
                       ------------------------------------

 Vector    1  Occ=2.000000D+00  E=-1.554096D+01  Symmetry=a1
              MO Center=  9.5D-22,  8.5D-22,  1.0D-01, r^2= 2.0D-02
   Bfn.  Coefficient  Atom+Function         Bfn.  Coefficient  Atom+Function  
  ----- ------------  ---------------      ----- ------------  ---------------
     1      0.557696  1 N  s                  2      0.467952  1 N  s          

 Vector    2  Occ=2.000000D+00  E=-1.147994D+00  Symmetry=a1
              MO Center= -8.2D-18,  6.2D-17, -7.0D-02, r^2= 7.0D-01
   Bfn.  Coefficient  Atom+Function         Bfn.  Coefficient  Atom+Function  
  ----- ------------  ---------------      ----- ------------  ---------------
     6      0.475371  1 N  s                 10      0.396090  1 N  s          
     2     -0.175503  1 N  s          

 Vector    3  Occ=2.000000D+00  E=-6.382296D-01  Symmetry=e
              MO Center=  1.7D-01, -9.4D-02, -5.2D-02, r^2= 9.5D-01
   Bfn.  Coefficient  Atom+Function         Bfn.  Coefficient  Atom+Function  
  ----- ------------  ---------------      ----- ------------  ---------------
     8      0.345965  1 N  py                12      0.231463  1 N  py         
     4      0.202341  1 N  py                28     -0.197898  3 H  s          
    25      0.171965  2 H  s                 27     -0.156604  3 H  s          

 Vector    4  Occ=2.000000D+00  E=-6.382296D-01  Symmetry=e
              MO Center= -1.7D-01,  9.4D-02, -5.2D-02, r^2= 9.5D-01
   Bfn.  Coefficient  Atom+Function         Bfn.  Coefficient  Atom+Function  
  ----- ------------  ---------------      ----- ------------  ---------------
     7      0.345965  1 N  px                11      0.231463  1 N  px         
    31     -0.213540  4 H  s                  3      0.202341  1 N  px         
    30     -0.168982  4 H  s          

 Vector    5  Occ=2.000000D+00  E=-4.234345D-01  Symmetry=a1
              MO Center= -8.3D-17, -6.6D-17,  2.5D-01, r^2= 9.4D-01
   Bfn.  Coefficient  Atom+Function         Bfn.  Coefficient  Atom+Function  
  ----- ------------  ---------------      ----- ------------  ---------------
    13      0.443373  1 N  pz                 9      0.390725  1 N  pz         
     5      0.247554  1 N  pz                 6      0.176092  1 N  s          
    10      0.155957  1 N  s          

 Vector    6  Occ=0.000000D+00  E= 9.928052D-02  Symmetry=a1
              MO Center=  0.0D+00,  2.2D-16, -1.1D+00, r^2= 5.5D+00
   Bfn.  Coefficient  Atom+Function         Bfn.  Coefficient  Atom+Function  
  ----- ------------  ---------------      ----- ------------  ---------------
    14      3.995732  1 N  s                 26     -1.273888  2 H  s          
    29     -1.273888  3 H  s                 32     -1.273888  4 H  s          
    17     -1.004263  1 N  pz                10     -0.552552  1 N  s          
    25      0.184097  2 H  s                 28      0.184097  3 H  s          
    31      0.184097  4 H  s          

 Vector    7  Occ=0.000000D+00  E= 1.602578D-01  Symmetry=e
              MO Center=  1.7D-01,  3.9D-01,  4.3D-01, r^2= 7.3D+00
   Bfn.  Coefficient  Atom+Function         Bfn.  Coefficient  Atom+Function  
  ----- ------------  ---------------      ----- ------------  ---------------
    16      1.571042  1 N  py                29      1.178835  3 H  s          
    15     -1.069815  1 N  px                32     -0.945997  4 H  s          
    12     -0.322356  1 N  py                26     -0.232838  2 H  s          
    11      0.219511  1 N  px         

 Vector    8  Occ=0.000000D+00  E= 1.602578D-01  Symmetry=e
              MO Center= -1.7D-01, -3.9D-01,  4.3D-01, r^2= 7.3D+00
   Bfn.  Coefficient  Atom+Function         Bfn.  Coefficient  Atom+Function  
  ----- ------------  ---------------      ----- ------------  ---------------
    15      1.571042  1 N  px                26     -1.226772  2 H  s          
    16      1.069815  1 N  py                32      0.815030  4 H  s          
    29      0.411742  3 H  s                 11     -0.322356  1 N  px         
    12     -0.219511  1 N  py         

 Vector    9  Occ=0.000000D+00  E= 1.977989D-01  Symmetry=a1
              MO Center= -2.1D-15, -2.4D-15,  8.1D-01, r^2= 6.1D+00
   Bfn.  Coefficient  Atom+Function         Bfn.  Coefficient  Atom+Function  
  ----- ------------  ---------------      ----- ------------  ---------------
    17      1.348273  1 N  pz                10     -0.726270  1 N  s          
    13     -0.483131  1 N  pz                26      0.484370  2 H  s          
    29      0.484370  3 H  s                 32      0.484370  4 H  s          
    14     -0.317522  1 N  s          

 Vector   10  Occ=0.000000D+00  E= 2.760550D-01  Symmetry=e
              MO Center= -4.7D-01, -1.4D-01, -2.7D-01, r^2= 4.6D+00
   Bfn.  Coefficient  Atom+Function         Bfn.  Coefficient  Atom+Function  
  ----- ------------  ---------------      ----- ------------  ---------------
    32      3.236597  4 H  s                 29     -2.405343  3 H  s          
    15      1.301928  1 N  px                26     -0.831254  2 H  s          
    16     -0.772541  1 N  py                11      0.692256  1 N  px         
    12     -0.410773  1 N  py         

 Vector   11  Occ=0.000000D+00  E= 2.760550D-01  Symmetry=e
              MO Center=  4.7D-01,  1.4D-01, -2.7D-01, r^2= 4.6D+00
   Bfn.  Coefficient  Atom+Function         Bfn.  Coefficient  Atom+Function  
  ----- ------------  ---------------      ----- ------------  ---------------
    26      3.257376  2 H  s                 29     -2.348575  3 H  s          
    16     -1.301928  1 N  py                32     -0.908801  4 H  s          
    15     -0.772541  1 N  px                12     -0.692256  1 N  py         
    11     -0.410773  1 N  px         

 Vector   12  Occ=0.000000D+00  E= 3.129586D-01  Symmetry=a1
              MO Center=  6.1D-16,  4.2D-15, -3.1D-01, r^2= 5.7D+00
   Bfn.  Coefficient  Atom+Function         Bfn.  Coefficient  Atom+Function  
  ----- ------------  ---------------      ----- ------------  ---------------
    14      6.600386  1 N  s                 26     -3.286902  2 H  s          
    29     -3.286902  3 H  s                 32     -3.286902  4 H  s          
    10      1.833260  1 N  s                 17     -1.122768  1 N  pz         
    13     -0.564548  1 N  pz         

 Vector   13  Occ=0.000000D+00  E= 6.564338D-01  Symmetry=e
              MO Center= -1.2D-03, -5.9D-04,  1.0D-01, r^2= 3.5D+00
   Bfn.  Coefficient  Atom+Function         Bfn.  Coefficient  Atom+Function  
  ----- ------------  ---------------      ----- ------------  ---------------
    32      2.675638  4 H  s                 29     -2.191995  3 H  s          
    31     -1.765839  4 H  s                 28      1.446649  3 H  s          
    15      1.331160  1 N  px                11     -1.123763  1 N  px         
    16     -0.940260  1 N  py                12      0.793766  1 N  py         
    26     -0.483644  2 H  s                 25      0.319190  2 H  s          

 Vector   14  Occ=0.000000D+00  E= 6.564338D-01  Symmetry=e
              MO Center=  1.2D-03,  5.9D-04,  1.0D-01, r^2= 3.5D+00
   Bfn.  Coefficient  Atom+Function         Bfn.  Coefficient  Atom+Function  
  ----- ------------  ---------------      ----- ------------  ---------------
    26      2.810329  2 H  s                 25     -1.854730  2 H  s          
    29     -1.824012  3 H  s                 16     -1.331160  1 N  py         
    28      1.203792  3 H  s                 12      1.123763  1 N  py         
    32     -0.986317  4 H  s                 15     -0.940260  1 N  px         
    11      0.793766  1 N  px                31      0.650939  4 H  s          

 Vector   15  Occ=0.000000D+00  E= 7.966535D-01  Symmetry=a1
              MO Center=  3.8D-15,  4.6D-15, -6.3D-01, r^2= 2.7D+00
   Bfn.  Coefficient  Atom+Function         Bfn.  Coefficient  Atom+Function  
  ----- ------------  ---------------      ----- ------------  ---------------
    14      4.208747  1 N  s                 26     -2.324003  2 H  s          
    29     -2.324003  3 H  s                 32     -2.324003  4 H  s          
    25      1.758394  2 H  s                 28      1.758394  3 H  s          
    31      1.758394  4 H  s                 10     -1.697717  1 N  s          
    13      1.096924  1 N  pz                17     -1.058916  1 N  pz         


 center of mass
 --------------
 x =  -0.00000000 y =  -0.00000000 z =   0.07753226

 moments of inertia (a.u.)
 ------------------
           5.873987212742           0.000000000000          -0.000000000000
           0.000000000000           5.873987212742           0.000000000000
          -0.000000000000           0.000000000000           9.481144589484

     Multipole analysis of the density
     ---------------------------------

     L   x y z        total         alpha         beta         nuclear
     -   - - -        -----         -----         ----         -------
     0   0 0 0     -0.000000     -5.000000     -5.000000     10.000000

     1   1 0 0     -0.000000     -0.000000     -0.000000     -0.000000
     1   0 1 0      0.000000      0.000000      0.000000      0.000000
     1   0 0 1     -0.730121     -0.339450     -0.339450     -0.051221

     2   2 0 0     -4.550949     -4.627357     -4.627357      4.703765
     2   1 1 0     -0.000000     -0.000000     -0.000000     -0.000000
     2   1 0 1      0.000000      0.000000      0.000000      0.000000
     2   0 2 0     -4.550949     -4.627357     -4.627357      4.703765
     2   0 1 1      0.000000     -0.000000     -0.000000      0.000000
     2   0 0 2     -7.097812     -4.027640     -4.027640      0.957468


 Parallel integral file used       1 records with       0 large values

 Line search: 
     step= 1.00 grad=-1.1D-03 hess= 7.5D-04 energy=    -56.204936 mode=downhill
 new step= 0.74                   predicted energy=    -56.204985

          --------
          Step   2
          --------


                         Geometry "geometry" -> "geometry"
                         ---------------------------------

 Output coordinates in angstroms (scale by  1.889725989 to convert to a.u.)

  No.       Tag          Charge          X              Y              Z
 ---- ---------------- ---------- -------------- -------------- --------------
    1 N                    7.0000     0.00000000     0.00000000     0.10053243
    2 H                    1.0000     0.66080280     0.66080280    -0.25148560
    3 H                    1.0000     0.24187061    -0.90267341    -0.25148560
    4 H                    1.0000    -0.90267341     0.24187061    -0.25148560

      Atomic Mass 
      ----------- 

      N                 14.003070
      H                  1.007825


 Effective nuclear repulsion energy (a.u.)      12.1088917904

            Nuclear Dipole moment (a.u.) 
            ----------------------------
        X                 Y               Z
 ---------------- ---------------- ----------------
     0.0000000000    -0.0000000000    -0.0958654463

      Symmetry information
      --------------------

 Group name             C3v       
 Group number             17
 Group order               6
 No. of unique centers     2

      Symmetry unique atoms

     1    2


                                 NWChem DFT Module
                                 -----------------


                                 H3N1 dft optimize


  Caching 1-el integrals 
  Rotation of axis 

            General Information
            -------------------
          SCF calculation type: DFT
          Wavefunction type:  closed shell.
          No. of atoms     :     4
          No. of electrons :    10
           Alpha electrons :     5
            Beta electrons :     5
          Charge           :     0
          Spin multiplicity:     1
          Use of symmetry is: on ; symmetry adaption is: on 
          Maximum number of iterations:  30
          AO basis - number of functions:    32
                     number of shells:    19
          Convergence on energy requested: 1.00D-06
          Convergence on density requested: 1.00D-05
          Convergence on gradient requested: 5.00D-04

              XC Information
              --------------
                     Hartree-Fock (Exact) Exchange  1.000          

          Convergence Information
          -----------------------
          Convergence aids based upon iterative change in 
          total energy or number of iterations. 
          Levelshifting, if invoked, occurs when the 
          HOMO/LUMO gap drops below (HL_TOL): 1.00D-02
          DIIS, if invoked, will attempt to extrapolate 
          using up to (NFOCK): 10 stored Fock matrices.

                    Damping( 0%)  Levelshifting(0.5)       DIIS
                  --------------- ------------------- ---------------
          dE  on:    start            ASAP                start   
          dE off:    2 iters         30 iters            30 iters 


      Screening Tolerance Information
      -------------------------------
          Density screening/tol_rho: 1.00D-10
          AO Gaussian exp screening on grid/accAOfunc:  14
          CD Gaussian exp screening on grid/accCDfunc:  20
          XC Gaussian exp screening on grid/accXCfunc:  20
          Schwarz screening/accCoul: 1.00D-08


 Loading old vectors from job with title :

H3N1 dft optimize


      Symmetry analysis of molecular orbitals - initial
      -------------------------------------------------

  Numbering of irreducible representations: 

     1 a1          2 a2          3 e       

  Orbital symmetries:

     1 a1          2 a1          3 e           4 e           5 a1      
     6 a1          7 e           8 e           9 a1         10 e       
    11 e          12 a1         13 e          14 e          15 a1      

   Time after variat. SCF:      0.8
   Time prior to 1st pass:      0.8

 #quartets = 6.571D+03 #integrals = 4.227D+04 #direct =  0.0% #cached =100.0%


 Integral file          = ./NH3.aoints.0
 Record size in doubles =  65536        No. of integs per rec  =  43688
 Max. records in memory =      2        Max. records in file   = 184913
 No. of bits per label  =      8        No. of bits per value  =     64


           Memory utilization after 1st SCF pass: 
           Heap Space remaining (MW):       32.63            32634981
          Stack Space remaining (MW):       32.77            32767696

   convergence    iter        energy       DeltaE   RMS-Dens  Diis-err    time
 ---------------- ----- ----------------- --------- --------- ---------  ------
 d= 0,ls=0.0,diis     1    -56.2049597059 -6.83D+01  2.40D-04  1.85D-04     0.8
 d= 0,ls=0.0,diis     2    -56.2049788959 -1.92D-05  9.24D-05  3.84D-05     0.8
 d= 0,ls=0.0,diis     3    -56.2049826603 -3.76D-06  4.45D-05  2.33D-06     0.8
 d= 0,ls=0.0,diis     4    -56.2049831199 -4.60D-07  2.19D-05  9.24D-08     0.8
 d= 0,ls=0.0,diis     5    -56.2049831645 -4.46D-08  4.34D-06  2.81D-09     0.8


         Total DFT energy =      -56.204983164476
      One electron energy =      -99.842237701476
           Coulomb energy =       39.208663846227
    Exchange-Corr. energy =       -7.680301099623
 Nuclear repulsion energy =       12.108891790396

 Numeric. integr. density =        0.000000000000

     Total iterative time =      0.1s



                  Occupations of the irreducible representations
                  ----------------------------------------------

                     irrep           alpha         beta
                     --------     --------     --------
                     a1                3.0          3.0
                     a2                0.0          0.0
                     e                 2.0          2.0


                       DFT Final Molecular Orbital Analysis
                       ------------------------------------

 Vector    1  Occ=2.000000D+00  E=-1.553932D+01  Symmetry=a1
              MO Center=  1.7D-17,  2.1D-17,  1.0D-01, r^2= 2.0D-02
   Bfn.  Coefficient  Atom+Function         Bfn.  Coefficient  Atom+Function  
  ----- ------------  ---------------      ----- ------------  ---------------
     1      0.557688  1 N  s                  2      0.467941  1 N  s          

 Vector    2  Occ=2.000000D+00  E=-1.149790D+00  Symmetry=a1
              MO Center= -6.1D-18, -1.9D-17, -7.2D-02, r^2= 6.9D-01
   Bfn.  Coefficient  Atom+Function         Bfn.  Coefficient  Atom+Function  
  ----- ------------  ---------------      ----- ------------  ---------------
     6      0.475655  1 N  s                 10      0.394744  1 N  s          
[...]
    8     1864.195 ||    0.035110           0.810        34.227       8.046
    9     1864.195 ||    0.035110           0.810        34.227       8.046
   10     3723.018 ||    0.000353           0.008         0.344       0.081
   11     3849.425 ||    0.001326           0.031         1.293       0.304
   12     3849.425 ||    0.001326           0.031         1.293       0.304
 ----------------------------------------------------------------------------



 vib:animation  F

 Task  times  cpu:        1.9s     wall:        2.1s


                                NWChem Input Module
                                -------------------


                                  H3N1 dft energy
                                  ---------------
  library name resolved from: environment
  library file name is: </Users/chenzheng/Google Drive/nano266/resources/nwchem_basis/>
  
                      Basis "ao basis" -> "" (cartesian)
                      -----
  H (Hydrogen)
  ------------
            Exponent  Coefficients 
       -------------- ---------------------------------------------------------
  1 S  3.38650000E+01  0.025494
  1 S  5.09479000E+00  0.190373
  1 S  1.15879000E+00  0.852161

  2 S  3.25840000E-01  1.000000

  3 S  1.02741000E-01  1.000000

  N (Nitrogen)
  ------------
            Exponent  Coefficients 
       -------------- ---------------------------------------------------------
  1 S  6.29348000E+03  0.001970
  1 S  9.49044000E+02  0.014961
  1 S  2.18776000E+02  0.073501
  1 S  6.36916000E+01  0.248937
  1 S  1.88282000E+01  0.602460
  1 S  2.72023000E+00  0.256202

  2 S  3.06331000E+01  0.111906
  2 S  7.02614000E+00  0.921666
  2 S  2.11205000E+00 -0.002569

  3 P  3.06331000E+01  0.038312
  3 P  7.02614000E+00  0.237403
  3 P  2.11205000E+00  0.817592

  4 S  6.84009000E-01  1.000000

  5 P  6.84009000E-01  1.000000

  6 S  2.00878000E-01  1.000000

  7 P  2.00878000E-01  1.000000

  8 S  6.39000000E-02  1.000000

  9 P  6.39000000E-02  1.000000

 10 D  9.13000000E-01  1.000000



 Summary of "ao basis" -> "" (cartesian)
 ------------------------------------------------------------------------------
       Tag                 Description            Shells   Functions and Types
 ---------------- ------------------------------  ------  ---------------------
 H                          6-311+G*                 3        3   3s
 N                          6-311+G*                10       23   5s4p1d


  xc_inp: hfexch multiplicative factor not found.

                                 NWChem DFT Module
                                 -----------------


                                  H3N1 dft energy


  Caching 1-el integrals 
  Rotation of axis 
  itol2e modified to match energy
  convergence criterion.

            General Information
            -------------------
          SCF calculation type: DFT
          Wavefunction type:  closed shell.
          No. of atoms     :     4
          No. of electrons :    10
           Alpha electrons :     5
            Beta electrons :     5
          Charge           :     0
          Spin multiplicity:     1
          Use of symmetry is: on ; symmetry adaption is: on 
          Maximum number of iterations:  30
          AO basis - number of functions:    32
                     number of shells:    19
          Convergence on energy requested: 1.00D-07
          Convergence on density requested: 1.00D-05
          Convergence on gradient requested: 5.00D-04

              XC Information
              --------------
                     Hartree-Fock (Exact) Exchange  1.000          

          Convergence Information
          -----------------------
          Convergence aids based upon iterative change in 
          total energy or number of iterations. 
          Levelshifting, if invoked, occurs when the 
          HOMO/LUMO gap drops below (HL_TOL): 1.00D-02
          DIIS, if invoked, will attempt to extrapolate 
          using up to (NFOCK): 10 stored Fock matrices.

                    Damping( 0%)  Levelshifting(0.5)       DIIS
                  --------------- ------------------- ---------------
          dE  on:    start            ASAP                start   
          dE off:    2 iters         30 iters            30 iters 


      Screening Tolerance Information
      -------------------------------
          Density screening/tol_rho: 1.00D-11
          AO Gaussian exp screening on grid/accAOfunc:  16
          CD Gaussian exp screening on grid/accCDfunc:  20
          XC Gaussian exp screening on grid/accXCfunc:  20
          Schwarz screening/accCoul: 1.00D-08


 Loading old vectors from job with title :

H3N1 dft freq


      Symmetry analysis of molecular orbitals - initial
      -------------------------------------------------

  Numbering of irreducible representations: 

     1 a1          2 a2          3 e       

  Orbital symmetries:

     1 a1          2 a1          3 e           4 e           5 a1      
     6 a1          7 e           8 e           9 a1         10 e       
    11 e          12 a1         13 e          14 e          15 a1      

   Time after variat. SCF:      3.2
   Time prior to 1st pass:      3.2

 #quartets = 6.571D+03 #integrals = 4.227D+04 #direct =  0.0% #cached =100.0%


 Integral file          = ./NH3.aoints.0
 Record size in doubles =  65536        No. of integs per rec  =  43688
 Max. records in memory =      2        Max. records in file   = 184913
 No. of bits per label  =      8        No. of bits per value  =     64


           Memory utilization after 1st SCF pass: 
           Heap Space remaining (MW):       32.64            32635013
          Stack Space remaining (MW):       32.77            32767696

   convergence    iter        energy       DeltaE   RMS-Dens  Diis-err    time
 ---------------- ----- ----------------- --------- --------- ---------  ------
 d= 0,ls=0.0,diis     1    -56.2049832827 -6.83D+01  7.00D-07  1.94D-10     3.2
 d= 0,ls=0.0,diis     2    -56.2049832817  9.98D-10  3.80D-07  4.25D-11     3.2


         Total DFT energy =      -56.204983281716
      One electron energy =      -99.842047498020
           Coulomb energy =       39.208457449166
    Exchange-Corr. energy =       -7.680302657284
 Nuclear repulsion energy =       12.108909424421

 Numeric. integr. density =        0.000000000000

     Total iterative time =      0.1s



                  Occupations of the irreducible representations
                  ----------------------------------------------

                     irrep           alpha         beta
                     --------     --------     --------
                     a1                3.0          3.0
                     a2                0.0          0.0
                     e                 2.0          2.0


                       DFT Final Molecular Orbital Analysis
                       ------------------------------------

 Vector    1  Occ=2.000000D+00  E=-1.553936D+01  Symmetry=a1
              MO Center=  1.1D-17, -4.1D-18,  1.0D-01, r^2= 2.0D-02
   Bfn.  Coefficient  Atom+Function         Bfn.  Coefficient  Atom+Function  
  ----- ------------  ---------------      ----- ------------  ---------------
     1      0.557688  1 N  s                  2      0.467942  1 N  s          

 Vector    2  Occ=2.000000D+00  E=-1.149866D+00  Symmetry=a1
              MO Center= -1.2D-16, -2.2D-17, -7.2D-02, r^2= 6.9D-01
   Bfn.  Coefficient  Atom+Function         Bfn.  Coefficient  Atom+Function  
  ----- ------------  ---------------      ----- ------------  ---------------
     6      0.475611  1 N  s                 10      0.394787  1 N  s          
     2     -0.175573  1 N  s          

 Vector    3  Occ=2.000000D+00  E=-6.403256D-01  Symmetry=e
              MO Center=  2.8D-02, -1.9D-01, -5.4D-02, r^2= 9.5D-01
   Bfn.  Coefficient  Atom+Function         Bfn.  Coefficient  Atom+Function  
  ----- ------------  ---------------      ----- ------------  ---------------
     8      0.332175  1 N  py                12      0.221294  1 N  py         
    28     -0.214037  3 H  s                  4      0.194338  1 N  py         
    27     -0.170346  3 H  s          

 Vector    4  Occ=2.000000D+00  E=-6.403256D-01  Symmetry=e
              MO Center= -2.8D-02,  1.9D-01, -5.4D-02, r^2= 9.5D-01
   Bfn.  Coefficient  Atom+Function         Bfn.  Coefficient  Atom+Function  
  ----- ------------  ---------------      ----- ------------  ---------------
     7      0.332175  1 N  px                11      0.221294  1 N  px         
     3      0.194338  1 N  px                25      0.191642  2 H  s          
    31     -0.179081  4 H  s                 24      0.152522  2 H  s          

 Vector    5  Occ=2.000000D+00  E=-4.229944D-01  Symmetry=a1
              MO Center= -4.1D-17,  5.4D-17,  2.5D-01, r^2= 9.4D-01
   Bfn.  Coefficient  Atom+Function         Bfn.  Coefficient  Atom+Function  
  ----- ------------  ---------------      ----- ------------  ---------------
    13      0.444207  1 N  pz                 9      0.391408  1 N  pz         
     5      0.247764  1 N  pz                 6      0.174445  1 N  s          
    10      0.153716  1 N  s          

 Vector    6  Occ=0.000000D+00  E= 9.930324D-02  Symmetry=a1
              MO Center=  3.1D-16,  2.2D-16, -1.1D+00, r^2= 5.5D+00
   Bfn.  Coefficient  Atom+Function         Bfn.  Coefficient  Atom+Function  
  ----- ------------  ---------------      ----- ------------  ---------------
    14      3.999707  1 N  s                 26     -1.275993  2 H  s          
    29     -1.275993  3 H  s                 32     -1.275993  4 H  s          
    17     -0.996149  1 N  pz                10     -0.545316  1 N  s          
    25      0.184380  2 H  s                 28      0.184380  3 H  s          
    31      0.184380  4 H  s          

 Vector    7  Occ=0.000000D+00  E= 1.598752D-01  Symmetry=e
              MO Center=  4.3D-01,  1.5D-02,  4.2D-01, r^2= 7.3D+00
   Bfn.  Coefficient  Atom+Function         Bfn.  Coefficient  Atom+Function  
  ----- ------------  ---------------      ----- ------------  ---------------
    15      1.746871  1 N  px                32      1.245933  4 H  s          
    29     -0.783879  3 H  s                 16     -0.758909  1 N  py         
    26     -0.462054  2 H  s                 11     -0.355433  1 N  px         
    12      0.154414  1 N  py         

 Vector    8  Occ=0.000000D+00  E= 1.598752D-01  Symmetry=e
              MO Center= -4.3D-01, -1.5D-02,  4.2D-01, r^2= 7.3D+00
   Bfn.  Coefficient  Atom+Function         Bfn.  Coefficient  Atom+Function  
  ----- ------------  ---------------      ----- ------------  ---------------
    16      1.746871  1 N  py                26     -1.171913  2 H  s          
    29      0.986107  3 H  s                 15      0.758909  1 N  px         
    12     -0.355433  1 N  py                32      0.185806  4 H  s          
    11     -0.154414  1 N  px         

 Vector    9  Occ=0.000000D+00  E= 1.979272D-01  Symmetry=a1
              MO Center= -9.8D-15,  6.5D-16,  8.1D-01, r^2= 6.1D+00
   Bfn.  Coefficient  Atom+Function         Bfn.  Coefficient  Atom+Function  
  ----- ------------  ---------------      ----- ------------  ---------------
    17      1.341015  1 N  pz                10     -0.718496  1 N  s          
    13     -0.486845  1 N  pz                26      0.467545  2 H  s          
    29      0.467545  3 H  s                 32      0.467545  4 H  s          
    14     -0.285995  1 N  s          

 Vector   10  Occ=0.000000D+00  E= 2.772684D-01  Symmetry=e
              MO Center= -3.9D-01, -2.9D-01, -2.7D-01, r^2= 4.6D+00
   Bfn.  Coefficient  Atom+Function         Bfn.  Coefficient  Atom+Function  
  ----- ------------  ---------------      ----- ------------  ---------------
    32     -3.051428  4 H  s                 29      2.798806  3 H  s          
    15     -1.153530  1 N  px                16      0.992986  1 N  py         
    11     -0.614092  1 N  px                12      0.528625  1 N  py         
    26      0.252622  2 H  s          

 Vector   11  Occ=0.000000D+00  E= 2.772684D-01  Symmetry=e
              MO Center=  3.9D-01,  2.9D-01, -2.7D-01, r^2= 4.6D+00
   Bfn.  Coefficient  Atom+Function         Bfn.  Coefficient  Atom+Function  
  ----- ------------  ---------------      ----- ------------  ---------------
    26      3.377634  2 H  s                 29     -1.907594  3 H  s          
    32     -1.470040  4 H  s                 16     -1.153530  1 N  py         
    15     -0.992986  1 N  px                12     -0.614092  1 N  py         
    11     -0.528625  1 N  px         

 Vector   12  Occ=0.000000D+00  E= 3.137162D-01  Symmetry=a1
              MO Center= -3.7D-15, -1.3D-15, -3.1D-01, r^2= 5.7D+00
   Bfn.  Coefficient  Atom+Function         Bfn.  Coefficient  Atom+Function  
  ----- ------------  ---------------      ----- ------------  ---------------
    14      6.583680  1 N  s                 26     -3.284675  2 H  s          
    29     -3.284675  3 H  s                 32     -3.284675  4 H  s          
    10      1.857680  1 N  s                 17     -1.109329  1 N  pz         
    13     -0.558440  1 N  pz         

 Vector   13  Occ=0.000000D+00  E= 6.578407D-01  Symmetry=e
              MO Center= -3.6D-03,  7.2D-03,  1.0D-01, r^2= 3.5D+00
   Bfn.  Coefficient  Atom+Function         Bfn.  Coefficient  Atom+Function  
  ----- ------------  ---------------      ----- ------------  ---------------
    29      2.831117  3 H  s                 28     -1.879207  3 H  s          
    26     -1.663472  2 H  s                 16      1.610379  1 N  py         
    12     -1.378000  1 N  py                32     -1.167645  4 H  s          
    25      1.104161  2 H  s                 31      0.775046  4 H  s          
    15     -0.261581  1 N  px                11      0.223834  1 N  px         

 Vector   14  Occ=0.000000D+00  E= 6.578407D-01  Symmetry=e
              MO Center=  3.6D-03, -7.2D-03,  1.0D-01, r^2= 3.5D+00
   Bfn.  Coefficient  Atom+Function         Bfn.  Coefficient  Atom+Function  
  ----- ------------  ---------------      ----- ------------  ---------------
    32      2.594952  4 H  s                 26     -2.308686  2 H  s          
    31     -1.722448  4 H  s                 15      1.610379  1 N  px         
    25      1.532434  2 H  s                 11     -1.378000  1 N  px         
    29     -0.286266  3 H  s                 16      0.261581  1 N  py         
    12     -0.223834  1 N  py                28      0.190014  3 H  s          

 Vector   15  Occ=0.000000D+00  E= 7.966212D-01  Symmetry=a1
              MO Center=  7.9D-15, -4.0D-15, -6.4D-01, r^2= 2.7D+00
   Bfn.  Coefficient  Atom+Function         Bfn.  Coefficient  Atom+Function  
  ----- ------------  ---------------      ----- ------------  ---------------
    14      4.163257  1 N  s                 26     -2.293438  2 H  s          
    29     -2.293438  3 H  s                 32     -2.293438  4 H  s          
    25      1.763064  2 H  s                 28      1.763064  3 H  s          
    31      1.763064  4 H  s                 10     -1.751835  1 N  s          
    13      1.105745  1 N  pz                17     -1.041173  1 N  pz         


 center of mass
 --------------
 x =  -0.00000000 y =  -0.00000000 z =   0.07263331

 moments of inertia (a.u.)
 ------------------
           5.816986018497           0.000000000000          -0.000000000000
           0.000000000000           5.816986018497          -0.000000000000
          -0.000000000000          -0.000000000000           9.424247795772

     Multipole analysis of the density
     ---------------------------------

     L   x y z        total         alpha         beta         nuclear
     -   - - -        -----         -----         ----         -------
     0   0 0 0     -0.000000     -5.000000     -5.000000     10.000000

     1   1 0 0     -0.000000     -0.000000     -0.000000     -0.000000
     1   0 1 0     -0.000000     -0.000000     -0.000000     -0.000000
     1   0 0 1     -0.725323     -0.317795     -0.317795     -0.089733

     2   2 0 0     -4.543377     -4.609458     -4.609458      4.675538
     2   1 1 0     -0.000000     -0.000000     -0.000000     -0.000000
     2   1 0 1     -0.000000     -0.000000     -0.000000      0.000000
     2   0 2 0     -4.543377     -4.609458     -4.609458      4.675538
     2   0 1 1      0.000000      0.000000      0.000000      0.000000
     2   0 0 2     -7.089457     -4.011677     -4.011677      0.933897


 Parallel integral file used       1 records with       0 large values


 Task  times  cpu:        0.1s     wall:        0.2s
 Summary of allocated global arrays
-----------------------------------
  No active global arrays



                         GA Statistics for process    0
                         ------------------------------

       create   destroy   get      put      acc     scatter   gather  read&inc
calls: 1836     1836     3.01e+05 3.40e+04 1.67e+05  326        0     2979     
number of processes/call 1.00e+00 1.00e+00 1.00e+00 1.00e+00 0.00e+00
bytes total:             1.36e+08 1.70e+07 1.03e+08 2.33e+06 0.00e+00 2.38e+04
bytes remote:            0.00e+00 0.00e+00 0.00e+00 0.00e+00 0.00e+00 0.00e+00
Max memory consumed for GA by this process: 777984 bytes
MA_summarize_allocated_blocks: starting scan ...
MA_summarize_allocated_blocks: scan completed: 0 heap blocks, 0 stack blocks
MA usage statistics:

	allocation statistics:
					      heap	     stack
					      ----	     -----
	current number of blocks	         0	         0
	maximum number of blocks	        26	        36
	current total bytes		         0	         0
	maximum total bytes		   3162328	  77747440
	maximum total K-bytes		      3163	     77748
	maximum total M-bytes		         4	        78


                                NWChem Input Module
                                -------------------





                                     CITATION
                                     --------
                Please cite the following reference when publishing
                           results obtained with NWChem:

                 M. Valiev, E.J. Bylaska, N. Govind, K. Kowalski,
              T.P. Straatsma, H.J.J. van Dam, D. Wang, J. Nieplocha,
                        E. Apra, T.L. Windus, W.A. de Jong
                 "NWChem: a comprehensive and scalable open-source
                  solution for large scale molecular simulations"
                      Comput. Phys. Commun. 181, 1477 (2010)
                           doi:10.1016/j.cpc.2010.04.018

                              AUTHORS & CONTRIBUTORS
                              ----------------------
          E. Apra, E. J. Bylaska, W. A. de Jong, N. Govind, K. Kowalski,
       T. P. Straatsma, M. Valiev, H. J. J. van Dam, D. Wang, T. L. Windus,
        J. Hammond, J. Autschbach, K. Bhaskaran-Nair, J. Brabec, K. Lopata,
     F. Aquino, S. Hirata, M. T. Hackler, J. Mullin, P. Nichols, R. Peverati,
    J. Pittner, Y. Zhao, P.-D. Fan, R. J. Harrison, M. Dupuis, D. Silverstein,
    D. M. A. Smith, J. Nieplocha, V. Tipparaju, M. Krishnan, B. E. Van Kuiken,
        A. Vazquez-Mayagoitia, L. Jensen, M. Swart, Q. Wu, T. Van Voorhis,
     A. A. Auer, M. Nooijen, L. D. Crosby, E. Brown, G. Cisneros, G. I. Fann,
     H. Fruchtl, J. Garza, K. Hirao, R. Kendall, J. A. Nichols, K. Tsemekhman,
      K. Wolinski, J. Anchell, D. Bernholdt, P. Borowski, T. Clark, D. Clerc,
      H. Dachsel, M. Deegan, K. Dyall, D. Elwood, E. Glendening, M. Gutowski,
      A. Hess, J. Jaffe, B. Johnson, J. Ju, R. Kobayashi, R. Kutteh, Z. Lin,
   R. Littlefield, X. Long, B. Meng, T. Nakajima, S. Niu, L. Pollack, M. Rosing,
   K. Glaesemann, G. Sandrone, M. Stave, H. Taylor, G. Thomas, J. H. van Lenthe,
                                A. Wong, Z. Zhang.

 Total times  cpu:        3.3s     wall:        3.8s
