
     Program PWSCF v.5.1 starts on 28Apr2015 at 20:16:48 

     This program is part of the open-source Quantum ESPRESSO suite
     for quantum simulation of materials; please cite
         "P. Giannozzi et al., J. Phys.:Condens. Matter 21 395502 (2009);
          URL http://www.quantum-espresso.org", 
     in publications or presentations arising from this work. More details at
     http://www.quantum-espresso.org/quote

     Parallel version (MPI), running on     1 processors
     Waiting for input...
     Reading input from standard input
Warning: card &IONS ignored
Warning: card / ignored
Warning: card &CELL ignored
Warning: card / ignored

     Current dimensions of program PWSCF are:
     Max number of different atomic species (ntypx) = 10
     Max number of k-points (npk) =  40000
     Max angular momentum in pseudopotentials (lmaxx) =  3
               file Si.pbe-n-kjpaw_psl.0.1.UPF: wavefunction(s)  3S renormalized

     Subspace diagonalization in iterative solution of the eigenvalue problem:
     a serial algorithm will be used

 
     G-vector sticks info
     --------------------
     sticks:   dense  smooth     PW     G-vecs:    dense   smooth      PW
     Sum        1453    1453    421                36325    36325    5769
 


     bravais-lattice index     =            2
     lattice parameter (alat)  =      10.2600  a.u.
     unit-cell volume          =     270.0114 (a.u.)^3
     number of atoms/cell      =            2
     number of atomic types    =            1
     number of electrons       =         8.00
     number of Kohn-Sham states=            4
     kinetic-energy cutoff     =     100.0000  Ry
     charge density cutoff     =     400.0000  Ry
     convergence threshold     =      1.0E-06
     mixing beta               =       0.7000
     number of iterations used =            8  plain     mixing
     Exchange-correlation      =  SLA  PW   PBX  PBC ( 1  4  3  4 0)

     celldm(1)=  10.260000  celldm(2)=   0.000000  celldm(3)=   0.000000
     celldm(4)=   0.000000  celldm(5)=   0.000000  celldm(6)=   0.000000

     crystal axes: (cart. coord. in units of alat)
               a(1) = (  -0.500000   0.000000   0.500000 )  
               a(2) = (   0.000000   0.500000   0.500000 )  
               a(3) = (  -0.500000   0.500000   0.000000 )  

     reciprocal axes: (cart. coord. in units 2 pi/alat)
               b(1) = ( -1.000000 -1.000000  1.000000 )  
               b(2) = (  1.000000  1.000000  1.000000 )  
               b(3) = ( -1.000000  1.000000 -1.000000 )  


     PseudoPot. # 1 for Si read from file:
     ./Si.pbe-n-kjpaw_psl.0.1.UPF
     MD5 check sum: b9d333a40e496bef61db012f150758bf
     Pseudo is Projector augmented-wave + core cor, Zval =  4.0
     Generated using "atomic" code by A. Dal Corso  v.5.0.2 svn rev. 9415
     Shape of augmentation charge: PSQ
     Using radial grid of 1141 points,  4 beta functions with: 
                l(1) =   0
                l(2) =   0
                l(3) =   1
                l(4) =   1
     Q(r) pseudized with 0 coefficients 


     atomic species   valence    mass     pseudopotential
        Si             4.00    28.05500     Si( 1.00)

     48 Sym. Ops., with inversion, found (24 have fractional translation)



   Cartesian axes

     site n.     atom                  positions (alat units)
         1           Si  tau(   1) = (   0.0000000   0.0000000   0.0000000  )
         2           Si  tau(   2) = (  -0.2500000   0.2500000   0.2500000  )

     number of k points=    16
                       cart. coord. in units 2pi/alat
        k(    1) = (   0.0000000   0.0000000   0.0000000), wk =   0.0092593
        k(    2) = (  -0.1666667   0.1666667  -0.1666667), wk =   0.0740741
        k(    3) = (  -0.3333333   0.3333333  -0.3333333), wk =   0.0740741
        k(    4) = (   0.5000000  -0.5000000   0.5000000), wk =   0.0370370
        k(    5) = (   0.0000000   0.3333333   0.0000000), wk =   0.0555556
        k(    6) = (  -0.1666667   0.5000000  -0.1666667), wk =   0.2222222
        k(    7) = (   0.6666667  -0.3333333   0.6666667), wk =   0.2222222
        k(    8) = (   0.5000000  -0.1666667   0.5000000), wk =   0.2222222
        k(    9) = (   0.3333333   0.0000000   0.3333333), wk =   0.1111111
        k(   10) = (   0.0000000   0.6666667   0.0000000), wk =   0.0555556
        k(   11) = (   0.8333333  -0.1666667   0.8333333), wk =   0.2222222
        k(   12) = (   0.6666667  -0.0000000   0.6666667), wk =   0.1111111
        k(   13) = (   0.0000000  -1.0000000   0.0000000), wk =   0.0277778
        k(   14) = (   0.6666667  -0.3333333   1.0000000), wk =   0.2222222
        k(   15) = (   0.5000000  -0.1666667   0.8333333), wk =   0.2222222
        k(   16) = (  -0.3333333  -1.0000000   0.0000000), wk =   0.1111111

     Dense  grid:    36325 G-vectors     FFT dimensions: (  48,  48,  48)

     Largest allocated arrays     est. size (Mb)     dimensions
        Kohn-Sham Wavefunctions         0.28 Mb     (    4576,    4)
        NL pseudopotentials             1.12 Mb     (    4576,   16)
        Each V/rho on FFT grid          1.69 Mb     (  110592)
        Each G-vector array             0.28 Mb     (   36325)
        G-vector shells                 0.00 Mb     (     357)
     Largest temporary arrays     est. size (Mb)     dimensions
        Auxiliary wavefunctions         1.12 Mb     (    4576,   16)
        Each subspace H/S matrix        0.00 Mb     (      16,   16)
        Each <psi_i|beta_j> matrix      0.00 Mb     (      16,    4)
        Arrays for rho mixing          13.50 Mb     (  110592,    8)

     Initial potential from superposition of free atoms

     starting charge    7.99888, renormalised to    8.00000
     Starting wfc are    8 randomized atomic wfcs
     Checking if some PAW data can be deallocated... 

     total cpu time spent up to now is        2.6 secs

     per-process dynamical memory:    28.8 Mb

     Self-consistent Calculation

     iteration #  1     ecut=   100.00 Ry     beta=0.70
     Davidson diagonalization with overlap
     ethr =  1.00E-02,  avg # of iterations =  2.0

     Threshold (ethr) on eigenvalues was too large:
     Diagonalizing with lowered threshold

     Davidson diagonalization with overlap
     ethr =  7.33E-04,  avg # of iterations =  1.0

     total cpu time spent up to now is        6.7 secs

     total energy              =     -93.44978483 Ry
     Harris-Foulkes estimate   =     -93.46385971 Ry
     estimated scf accuracy    <       0.05792504 Ry

     iteration #  2     ecut=   100.00 Ry     beta=0.70
     Davidson diagonalization with overlap
     ethr =  7.24E-04,  avg # of iterations =  1.0

     total cpu time spent up to now is        8.7 secs

     total energy              =     -93.45193129 Ry
     Harris-Foulkes estimate   =     -93.45206548 Ry
     estimated scf accuracy    <       0.00249025 Ry

     iteration #  3     ecut=   100.00 Ry     beta=0.70
     Davidson diagonalization with overlap
     ethr =  3.11E-05,  avg # of iterations =  1.9

     total cpu time spent up to now is       10.9 secs

     total energy              =     -93.45220284 Ry
     Harris-Foulkes estimate   =     -93.45221844 Ry
     estimated scf accuracy    <       0.00005288 Ry

     iteration #  4     ecut=   100.00 Ry     beta=0.70
     Davidson diagonalization with overlap
     ethr =  6.61E-07,  avg # of iterations =  3.0

     total cpu time spent up to now is       13.7 secs

     total energy              =     -93.45223242 Ry
     Harris-Foulkes estimate   =     -93.45223296 Ry
     estimated scf accuracy    <       0.00000154 Ry

     iteration #  5     ecut=   100.00 Ry     beta=0.70
     Davidson diagonalization with overlap
     ethr =  1.92E-08,  avg # of iterations =  2.9

     total cpu time spent up to now is       16.5 secs

     End of self-consistent calculation

          k = 0.0000 0.0000 0.0000 (  4573 PWs)   bands (ev):

    -5.7477   6.2254   6.2254   6.2254

          k =-0.1667 0.1667-0.1667 (  4552 PWs)   bands (ev):

    -5.3860   3.8419   5.7741   5.7741

          k =-0.3333 0.3333-0.3333 (  4564 PWs)   bands (ev):

    -4.3686   0.8858   5.2233   5.2233

          k = 0.5000-0.5000 0.5000 (  4512 PWs)   bands (ev):

    -3.4120  -0.7520   5.0248   5.0248

          k = 0.0000 0.3333 0.0000 (  4572 PWs)   bands (ev):

    -5.2628   4.1860   5.0303   5.0303

          k =-0.1667 0.5000-0.1667 (  4568 PWs)   bands (ev):

    -4.4462   1.7855   4.2297   4.4764

          k = 0.6667-0.3333 0.6667 (  4550 PWs)   bands (ev):

    -3.2526  -0.3867   3.4449   4.4462

          k = 0.5000-0.1667 0.5000 (  4567 PWs)   bands (ev):

    -3.6383   0.2135   3.1737   4.9260

          k = 0.3333 0.0000 0.3333 (  4573 PWs)   bands (ev):

    -4.7967   2.5053   3.8090   5.6596

          k = 0.0000 0.6667 0.0000 (  4576 PWs)   bands (ev):

    -3.8405   1.2116   3.8039   3.8039

          k = 0.8333-0.1667 0.8333 (  4554 PWs)   bands (ev):

    -2.6748  -0.3445   2.5879   3.6672

          k = 0.6667-0.0000 0.6667 (  4528 PWs)   bands (ev):

    -2.4781  -0.5501   1.8059   4.1102

          k = 0.0000-1.0000 0.0000 (  4568 PWs)   bands (ev):

    -1.5973  -1.5973   3.3686   3.3686

          k = 0.6667-0.3333 1.0000 (  4555 PWs)   bands (ev):

    -3.4547   0.5777   2.6505   3.9269

          k = 0.5000-0.1667 0.8333 (  4546 PWs)   bands (ev):

    -2.4681  -0.6234   2.2101   3.4595

          k =-0.3333-1.0000 0.0000 (  4554 PWs)   bands (ev):

    -1.4771  -1.4771   2.5749   2.5749

     highest occupied level (ev):     6.2254

!    total energy              =     -93.45223308 Ry
     Harris-Foulkes estimate   =     -93.45223313 Ry
     estimated scf accuracy    <       0.00000005 Ry

     total all-electron energy =     -1160.143969 Ry

     The total energy is the sum of the following terms:

     one-electron contribution =       5.74032510 Ry
     hartree contribution      =       1.10146947 Ry
     xc contribution           =     -12.25843270 Ry
     ewald contribution        =     -16.80092957 Ry
     one-center paw contrib.   =     -71.23466538 Ry

     convergence has been achieved in   5 iterations

     Forces acting on atoms (Ry/au):

     atom    1 type  1   force =    -0.00000000   -0.00000000    0.00000000
     atom    2 type  1   force =     0.00000000    0.00000000    0.00000000

     Total force =     0.000000     Total SCF correction =     0.000000


     entering subroutine stress ...

          total   stress  (Ry/bohr**3)                   (kbar)     P=   19.62
   0.00013338  -0.00000000  -0.00000000         19.62     -0.00     -0.00
  -0.00000000   0.00013338   0.00000000         -0.00     19.62      0.00
  -0.00000000   0.00000000   0.00013338         -0.00      0.00     19.62


     Writing output data file pwscf.save
 
     init_run     :      2.24s CPU      2.27s WALL (       1 calls)
     electrons    :     13.84s CPU     13.90s WALL (       1 calls)
     forces       :      0.36s CPU      0.36s WALL (       1 calls)
     stress       :      1.09s CPU      1.09s WALL (       1 calls)

     Called by init_run:
     wfcinit      :      1.13s CPU      1.13s WALL (       1 calls)
     potinit      :      0.31s CPU      0.32s WALL (       1 calls)

     Called by electrons:
     c_bands      :      9.55s CPU      9.58s WALL (       6 calls)
     sum_band     :      2.43s CPU      2.44s WALL (       6 calls)
     v_of_rho     :      0.79s CPU      0.80s WALL (       6 calls)
     newd         :      0.38s CPU      0.38s WALL (       6 calls)
     mix_rho      :      0.07s CPU      0.07s WALL (       6 calls)

     Called by c_bands:
     init_us_2    :      0.41s CPU      0.42s WALL (     240 calls)
     cegterg      :      8.88s CPU      8.91s WALL (      96 calls)

     Called by *egterg:
     h_psi        :      9.21s CPU      9.23s WALL (     301 calls)
     s_psi        :      0.17s CPU      0.17s WALL (     301 calls)
     g_psi        :      0.08s CPU      0.07s WALL (     189 calls)
     cdiaghg      :      0.03s CPU      0.03s WALL (     269 calls)

     Called by h_psi:
     add_vuspsi   :      0.16s CPU      0.17s WALL (     301 calls)

     General routines
     calbec       :      0.27s CPU      0.27s WALL (     429 calls)
     fft          :      0.61s CPU      0.62s WALL (     105 calls)
     fftw         :      9.33s CPU      9.37s WALL (    2692 calls)
     davcio       :      0.00s CPU      0.00s WALL (      16 calls)
 
     Parallel routines
     fft_scatter  :      1.18s CPU      1.22s WALL (    2797 calls)

     PAW routines
     PAW_pot      :      0.95s CPU      0.95s WALL (       6 calls)
     PAW_symme    :      0.00s CPU      0.00s WALL (      12 calls)
 
     PWSCF        :    17.96s CPU        18.11s WALL

 
   This run was terminated on:  20:17: 6  28Apr2015            

=------------------------------------------------------------------------------=
   JOB DONE.
=------------------------------------------------------------------------------=
