
     Program PWSCF v.5.1 starts on 28Apr2015 at 20:17: 7 

     This program is part of the open-source Quantum ESPRESSO suite
     for quantum simulation of materials; please cite
         "P. Giannozzi et al., J. Phys.:Condens. Matter 21 395502 (2009);
          URL http://www.quantum-espresso.org", 
     in publications or presentations arising from this work. More details at
     http://www.quantum-espresso.org/quote

     Parallel version (MPI), running on     1 processors
     Waiting for input...
     Reading input from standard input
Warning: card &IONS ignored
Warning: card / ignored
Warning: card &CELL ignored
Warning: card / ignored

     Current dimensions of program PWSCF are:
     Max number of different atomic species (ntypx) = 10
     Max number of k-points (npk) =  40000
     Max angular momentum in pseudopotentials (lmaxx) =  3
               file Si.pbe-n-kjpaw_psl.0.1.UPF: wavefunction(s)  3S renormalized

     Subspace diagonalization in iterative solution of the eigenvalue problem:
     a serial algorithm will be used

 
     G-vector sticks info
     --------------------
     sticks:   dense  smooth     PW     G-vecs:    dense   smooth      PW
     Sum         151     151     55                 1139     1139     283
 


     bravais-lattice index     =            2
     lattice parameter (alat)  =      10.2600  a.u.
     unit-cell volume          =     270.0114 (a.u.)^3
     number of atoms/cell      =            2
     number of atomic types    =            1
     number of electrons       =         8.00
     number of Kohn-Sham states=            4
     kinetic-energy cutoff     =      10.0000  Ry
     charge density cutoff     =      40.0000  Ry
     convergence threshold     =      1.0E-06
     mixing beta               =       0.7000
     number of iterations used =            8  plain     mixing
     Exchange-correlation      =  SLA  PW   PBX  PBC ( 1  4  3  4 0)

     celldm(1)=  10.260000  celldm(2)=   0.000000  celldm(3)=   0.000000
     celldm(4)=   0.000000  celldm(5)=   0.000000  celldm(6)=   0.000000

     crystal axes: (cart. coord. in units of alat)
               a(1) = (  -0.500000   0.000000   0.500000 )  
               a(2) = (   0.000000   0.500000   0.500000 )  
               a(3) = (  -0.500000   0.500000   0.000000 )  

     reciprocal axes: (cart. coord. in units 2 pi/alat)
               b(1) = ( -1.000000 -1.000000  1.000000 )  
               b(2) = (  1.000000  1.000000  1.000000 )  
               b(3) = ( -1.000000  1.000000 -1.000000 )  


     PseudoPot. # 1 for Si read from file:
     ./Si.pbe-n-kjpaw_psl.0.1.UPF
     MD5 check sum: b9d333a40e496bef61db012f150758bf
     Pseudo is Projector augmented-wave + core cor, Zval =  4.0
     Generated using "atomic" code by A. Dal Corso  v.5.0.2 svn rev. 9415
     Shape of augmentation charge: PSQ
     Using radial grid of 1141 points,  4 beta functions with: 
                l(1) =   0
                l(2) =   0
                l(3) =   1
                l(4) =   1
     Q(r) pseudized with 0 coefficients 


     atomic species   valence    mass     pseudopotential
        Si             4.00    28.05500     Si( 1.00)

     24 Sym. Ops. (no inversion) found
          (note: 24 additional sym.ops. were found but ignored
           their fractional translations are incommensurate with FFT grid)


   Cartesian axes

     site n.     atom                  positions (alat units)
         1           Si  tau(   1) = (   0.0000000   0.0000000   0.0000000  )
         2           Si  tau(   2) = (  -0.2500000   0.2500000   0.2500000  )

     number of k points=    20
                       cart. coord. in units 2pi/alat
        k(    1) = (   0.0000000   0.0000000   0.0000000), wk =   0.0058309
        k(    2) = (  -0.1428571   0.1428571  -0.1428571), wk =   0.0466472
        k(    3) = (  -0.2857143   0.2857143  -0.2857143), wk =   0.0466472
        k(    4) = (  -0.4285714   0.4285714  -0.4285714), wk =   0.0466472
        k(    5) = (   0.0000000   0.2857143   0.0000000), wk =   0.0349854
        k(    6) = (  -0.1428571   0.4285714  -0.1428571), wk =   0.1399417
        k(    7) = (  -0.2857143   0.5714286  -0.2857143), wk =   0.1399417
        k(    8) = (   0.5714286  -0.2857143   0.5714286), wk =   0.1399417
        k(    9) = (   0.4285714  -0.1428571   0.4285714), wk =   0.1399417
        k(   10) = (   0.2857143  -0.0000000   0.2857143), wk =   0.0699708
        k(   11) = (   0.0000000   0.5714286   0.0000000), wk =   0.0349854
        k(   12) = (  -0.1428571   0.7142857  -0.1428571), wk =   0.1399417
        k(   13) = (   0.7142857  -0.1428571   0.7142857), wk =   0.1399417
        k(   14) = (   0.5714286   0.0000000   0.5714286), wk =   0.0699708
        k(   15) = (   0.0000000   0.8571429   0.0000000), wk =   0.0349854
        k(   16) = (   0.8571429  -0.0000000   0.8571429), wk =   0.0699708
        k(   17) = (  -0.2857143   0.5714286   0.0000000), wk =   0.1399417
        k(   18) = (   0.5714286  -0.2857143   0.8571429), wk =   0.2798834
        k(   19) = (   0.7142857  -0.1428571   1.0000000), wk =   0.1399417
        k(   20) = (   0.5714286   0.0000000   0.8571429), wk =   0.1399417

     Dense  grid:     1139 G-vectors     FFT dimensions: (  15,  15,  15)

     Largest allocated arrays     est. size (Mb)     dimensions
        Kohn-Sham Wavefunctions         0.01 Mb     (     153,    4)
        NL pseudopotentials             0.04 Mb     (     153,   16)
        Each V/rho on FFT grid          0.05 Mb     (    3375)
        Each G-vector array             0.01 Mb     (    1139)
        G-vector shells                 0.00 Mb     (      37)
     Largest temporary arrays     est. size (Mb)     dimensions
        Auxiliary wavefunctions         0.04 Mb     (     153,   16)
        Each subspace H/S matrix        0.00 Mb     (      16,   16)
        Each <psi_i|beta_j> matrix      0.00 Mb     (      16,    4)
        Arrays for rho mixing           0.41 Mb     (    3375,    8)

     Check: negative/imaginary core charge=   -0.000249    0.000000

     Initial potential from superposition of free atoms

     starting charge    7.99888, renormalised to    8.00000
     Starting wfc are    8 randomized atomic wfcs
     Checking if some PAW data can be deallocated... 

     total cpu time spent up to now is        1.2 secs

     per-process dynamical memory:     5.9 Mb

     Self-consistent Calculation

     iteration #  1     ecut=    10.00 Ry     beta=0.70
     Davidson diagonalization with overlap
     ethr =  1.00E-02,  avg # of iterations =  2.0

     Threshold (ethr) on eigenvalues was too large:
     Diagonalizing with lowered threshold

     Davidson diagonalization with overlap
     ethr =  6.94E-04,  avg # of iterations =  1.1

     total cpu time spent up to now is        1.5 secs

     total energy              =     -93.44512827 Ry
     Harris-Foulkes estimate   =     -93.45766277 Ry
     estimated scf accuracy    <       0.05578930 Ry

     iteration #  2     ecut=    10.00 Ry     beta=0.70
     Davidson diagonalization with overlap
     ethr =  6.97E-04,  avg # of iterations =  1.0

     total cpu time spent up to now is        1.7 secs

     total energy              =     -93.44673480 Ry
     Harris-Foulkes estimate   =     -93.44698476 Ry
     estimated scf accuracy    <       0.00244104 Ry

     iteration #  3     ecut=    10.00 Ry     beta=0.70
     Davidson diagonalization with overlap
     ethr =  3.05E-05,  avg # of iterations =  1.8

     total cpu time spent up to now is        1.9 secs

     total energy              =     -93.44699688 Ry
     Harris-Foulkes estimate   =     -93.44701825 Ry
     estimated scf accuracy    <       0.00004866 Ry

     iteration #  4     ecut=    10.00 Ry     beta=0.70
     Davidson diagonalization with overlap
     ethr =  6.08E-07,  avg # of iterations =  2.6

     total cpu time spent up to now is        2.1 secs

     total energy              =     -93.44701796 Ry
     Harris-Foulkes estimate   =     -93.44701946 Ry
     estimated scf accuracy    <       0.00000363 Ry

     iteration #  5     ecut=    10.00 Ry     beta=0.70
     Davidson diagonalization with overlap
     ethr =  4.54E-08,  avg # of iterations =  2.1

     total cpu time spent up to now is        2.3 secs

     End of self-consistent calculation

          k = 0.0000 0.0000 0.0000 (   137 PWs)   bands (ev):

    -5.7434   6.3051   6.3051   6.3051

          k =-0.1429 0.1429-0.1429 (   153 PWs)   bands (ev):

    -5.4769   4.3322   5.9232   5.9232

          k =-0.2857 0.2857-0.2857 (   150 PWs)   bands (ev):

    -4.7082   1.6953   5.3958   5.3958

          k =-0.4286 0.4286-0.4286 (   147 PWs)   bands (ev):

    -3.6642  -0.3479   5.0996   5.0996

          k = 0.0000 0.2857 0.0000 (   153 PWs)   bands (ev):

    -5.3867   4.6317   5.2988   5.2988

          k =-0.1429 0.4286-0.1429 (   146 PWs)   bands (ev):

    -4.7778   2.4927   4.7136   4.7538

          k =-0.2857 0.5714-0.2857 (   146 PWs)   bands (ev):

    -3.7655   0.2948   4.0195   4.5550

          k = 0.5714-0.2857 0.5714 (   145 PWs)   bands (ev):

    -3.2045  -0.5740   3.6039   4.7552

          k = 0.4286-0.1429 0.4286 (   145 PWs)   bands (ev):

    -4.1353   0.9795   3.6077   5.2760

          k = 0.2857-0.0000 0.2857 (   145 PWs)   bands (ev):

    -5.0392   3.1165   4.3021   5.8795

          k = 0.0000 0.5714 0.0000 (   149 PWs)   bands (ev):

    -4.3325   2.0850   4.1188   4.1188

          k =-0.1429 0.7143-0.1429 (   139 PWs)   bands (ev):

    -3.4264   0.5748   3.1407   3.8572

          k = 0.7143-0.1429 0.7143 (   146 PWs)   bands (ev):

    -2.5047  -0.6123   2.1823   4.0253

          k = 0.5714 0.0000 0.5714 (   142 PWs)   bands (ev):

    -3.1580   0.1443   2.1089   4.5833

          k = 0.0000 0.8571 0.0000 (   142 PWs)   bands (ev):

    -2.6391  -0.4285   3.4739   3.4739

          k = 0.8571-0.0000 0.8571 (   142 PWs)   bands (ev):

    -1.6839  -1.3947   2.5849   3.5392

          k =-0.2857 0.5714 0.0000 (   144 PWs)   bands (ev):

    -4.0226   1.3440   3.1434   4.4779

          k = 0.5714-0.2857 0.8571 (   141 PWs)   bands (ev):

    -2.9759  -0.1950   2.5712   3.9367

          k = 0.7143-0.1429 1.0000 (   140 PWs)   bands (ev):

    -2.4324  -0.5153   2.6547   3.0679

          k = 0.5714 0.0000 0.8571 (   148 PWs)   bands (ev):

    -1.9943  -0.9147   2.0133   3.1606

     highest occupied level (ev):     6.3051

!    total energy              =     -93.44701865 Ry
     Harris-Foulkes estimate   =     -93.44701872 Ry
     estimated scf accuracy    <       0.00000009 Ry

     total all-electron energy =     -1160.138755 Ry

     The total energy is the sum of the following terms:

     one-electron contribution =       5.73533025 Ry
     hartree contribution      =       1.10038190 Ry
     xc contribution           =     -12.26403228 Ry
     ewald contribution        =     -16.80092958 Ry
     one-center paw contrib.   =     -71.21776895 Ry

     convergence has been achieved in   5 iterations

     Forces acting on atoms (Ry/au):

     atom    1 type  1   force =    -0.00000000    0.00000000    0.00000000
     atom    2 type  1   force =    -0.00000000    0.00000000    0.00000000

     Total force =     0.000000     Total SCF correction =     0.000000


     entering subroutine stress ...

          total   stress  (Ry/bohr**3)                   (kbar)     P=   65.58
   0.00044584  -0.00000000   0.00000000         65.58     -0.00      0.00
  -0.00000000   0.00044584  -0.00000000         -0.00     65.58     -0.00
   0.00000000   0.00000000   0.00044584          0.00      0.00     65.58


     Writing output data file pwscf.save
 
     init_run     :      0.43s CPU      0.43s WALL (       1 calls)
     electrons    :      1.11s CPU      1.13s WALL (       1 calls)
     forces       :      0.01s CPU      0.01s WALL (       1 calls)
     stress       :      0.04s CPU      0.04s WALL (       1 calls)

     Called by init_run:
     wfcinit      :      0.03s CPU      0.03s WALL (       1 calls)
     potinit      :      0.16s CPU      0.16s WALL (       1 calls)

     Called by electrons:
     c_bands      :      0.24s CPU      0.26s WALL (       6 calls)
     sum_band     :      0.06s CPU      0.06s WALL (       6 calls)
     v_of_rho     :      0.02s CPU      0.02s WALL (       6 calls)
     newd         :      0.01s CPU      0.01s WALL (       6 calls)
     mix_rho      :      0.00s CPU      0.00s WALL (       6 calls)

     Called by c_bands:
     init_us_2    :      0.02s CPU      0.02s WALL (     300 calls)
     cegterg      :      0.21s CPU      0.22s WALL (     120 calls)

     Called by *egterg:
     h_psi        :      0.19s CPU      0.20s WALL (     352 calls)
     s_psi        :      0.01s CPU      0.01s WALL (     352 calls)
     g_psi        :      0.00s CPU      0.00s WALL (     212 calls)
     cdiaghg      :      0.02s CPU      0.02s WALL (     312 calls)

     Called by h_psi:
     add_vuspsi   :      0.00s CPU      0.01s WALL (     352 calls)

     General routines
     calbec       :      0.01s CPU      0.01s WALL (     512 calls)
     fft          :      0.00s CPU      0.01s WALL (     105 calls)
     fftw         :      0.18s CPU      0.18s WALL (    3262 calls)
     davcio       :      0.00s CPU      0.00s WALL (      20 calls)
 
     Parallel routines
     fft_scatter  :      0.02s CPU      0.02s WALL (    3367 calls)

     PAW routines
     PAW_pot      :      0.95s CPU      0.95s WALL (       6 calls)
     PAW_symme    :      0.00s CPU      0.00s WALL (      12 calls)
 
     PWSCF        :     1.98s CPU         2.56s WALL

 
   This run was terminated on:  20:17: 9  28Apr2015            

=------------------------------------------------------------------------------=
   JOB DONE.
=------------------------------------------------------------------------------=
