
     Program PWSCF v.5.1 starts on 28Apr2015 at 20:26:41 

     This program is part of the open-source Quantum ESPRESSO suite
     for quantum simulation of materials; please cite
         "P. Giannozzi et al., J. Phys.:Condens. Matter 21 395502 (2009);
          URL http://www.quantum-espresso.org", 
     in publications or presentations arising from this work. More details at
     http://www.quantum-espresso.org/quote

     Parallel version (MPI), running on     1 processors
     Waiting for input...
     Reading input from standard input
Warning: card &IONS ignored
Warning: card / ignored
Warning: card &CELL ignored
Warning: card / ignored

     Current dimensions of program PWSCF are:
     Max number of different atomic species (ntypx) = 10
     Max number of k-points (npk) =  40000
     Max angular momentum in pseudopotentials (lmaxx) =  3
               file Si.pbe-n-kjpaw_psl.0.1.UPF: wavefunction(s)  3S renormalized

     Subspace diagonalization in iterative solution of the eigenvalue problem:
     a serial algorithm will be used

 
     G-vector sticks info
     --------------------
     sticks:   dense  smooth     PW     G-vecs:    dense   smooth      PW
     Sum        1453    1453    421                36325    36325    5769
 


     bravais-lattice index     =            2
     lattice parameter (alat)  =      10.2600  a.u.
     unit-cell volume          =     270.0114 (a.u.)^3
     number of atoms/cell      =            2
     number of atomic types    =            1
     number of electrons       =         8.00
     number of Kohn-Sham states=            4
     kinetic-energy cutoff     =     100.0000  Ry
     charge density cutoff     =     400.0000  Ry
     convergence threshold     =      1.0E-06
     mixing beta               =       0.7000
     number of iterations used =            8  plain     mixing
     Exchange-correlation      =  SLA  PW   PBX  PBC ( 1  4  3  4 0)

     celldm(1)=  10.260000  celldm(2)=   0.000000  celldm(3)=   0.000000
     celldm(4)=   0.000000  celldm(5)=   0.000000  celldm(6)=   0.000000

     crystal axes: (cart. coord. in units of alat)
               a(1) = (  -0.500000   0.000000   0.500000 )  
               a(2) = (   0.000000   0.500000   0.500000 )  
               a(3) = (  -0.500000   0.500000   0.000000 )  

     reciprocal axes: (cart. coord. in units 2 pi/alat)
               b(1) = ( -1.000000 -1.000000  1.000000 )  
               b(2) = (  1.000000  1.000000  1.000000 )  
               b(3) = ( -1.000000  1.000000 -1.000000 )  


     PseudoPot. # 1 for Si read from file:
     ./Si.pbe-n-kjpaw_psl.0.1.UPF
     MD5 check sum: b9d333a40e496bef61db012f150758bf
     Pseudo is Projector augmented-wave + core cor, Zval =  4.0
     Generated using "atomic" code by A. Dal Corso  v.5.0.2 svn rev. 9415
     Shape of augmentation charge: PSQ
     Using radial grid of 1141 points,  4 beta functions with: 
                l(1) =   0
                l(2) =   0
                l(3) =   1
                l(4) =   1
     Q(r) pseudized with 0 coefficients 


     atomic species   valence    mass     pseudopotential
        Si             4.00    28.05500     Si( 1.00)

     48 Sym. Ops., with inversion, found (24 have fractional translation)



   Cartesian axes

     site n.     atom                  positions (alat units)
         1           Si  tau(   1) = (   0.0000000   0.0000000   0.0000000  )
         2           Si  tau(   2) = (  -0.2500000   0.2500000   0.2500000  )

     number of k points=    47
                       cart. coord. in units 2pi/alat
        k(    1) = (   0.0000000   0.0000000   0.0000000), wk =   0.0020000
        k(    2) = (  -0.1000000   0.1000000  -0.1000000), wk =   0.0160000
        k(    3) = (  -0.2000000   0.2000000  -0.2000000), wk =   0.0160000
        k(    4) = (  -0.3000000   0.3000000  -0.3000000), wk =   0.0160000
        k(    5) = (  -0.4000000   0.4000000  -0.4000000), wk =   0.0160000
        k(    6) = (   0.5000000  -0.5000000   0.5000000), wk =   0.0080000
        k(    7) = (   0.0000000   0.2000000   0.0000000), wk =   0.0120000
        k(    8) = (  -0.1000000   0.3000000  -0.1000000), wk =   0.0480000
        k(    9) = (  -0.2000000   0.4000000  -0.2000000), wk =   0.0480000
        k(   10) = (  -0.3000000   0.5000000  -0.3000000), wk =   0.0480000
        k(   11) = (   0.6000000  -0.4000000   0.6000000), wk =   0.0480000
        k(   12) = (   0.5000000  -0.3000000   0.5000000), wk =   0.0480000
        k(   13) = (   0.4000000  -0.2000000   0.4000000), wk =   0.0480000
        k(   14) = (   0.3000000  -0.1000000   0.3000000), wk =   0.0480000
        k(   15) = (   0.2000000   0.0000000   0.2000000), wk =   0.0240000
        k(   16) = (   0.0000000   0.4000000   0.0000000), wk =   0.0120000
        k(   17) = (  -0.1000000   0.5000000  -0.1000000), wk =   0.0480000
        k(   18) = (  -0.2000000   0.6000000  -0.2000000), wk =   0.0480000
        k(   19) = (   0.7000000  -0.3000000   0.7000000), wk =   0.0480000
        k(   20) = (   0.6000000  -0.2000000   0.6000000), wk =   0.0480000
        k(   21) = (   0.5000000  -0.1000000   0.5000000), wk =   0.0480000
        k(   22) = (   0.4000000   0.0000000   0.4000000), wk =   0.0240000
        k(   23) = (   0.0000000   0.6000000   0.0000000), wk =   0.0120000
        k(   24) = (  -0.1000000   0.7000000  -0.1000000), wk =   0.0480000
        k(   25) = (   0.8000000  -0.2000000   0.8000000), wk =   0.0480000
        k(   26) = (   0.7000000  -0.1000000   0.7000000), wk =   0.0480000
        k(   27) = (   0.6000000  -0.0000000   0.6000000), wk =   0.0240000
        k(   28) = (   0.0000000   0.8000000   0.0000000), wk =   0.0120000
        k(   29) = (   0.9000000  -0.1000000   0.9000000), wk =   0.0480000
        k(   30) = (   0.8000000   0.0000000   0.8000000), wk =   0.0240000
        k(   31) = (   0.0000000  -1.0000000   0.0000000), wk =   0.0060000
        k(   32) = (  -0.2000000   0.4000000   0.0000000), wk =   0.0480000
        k(   33) = (  -0.3000000   0.5000000  -0.1000000), wk =   0.0960000
        k(   34) = (   0.6000000  -0.4000000   0.8000000), wk =   0.0960000
        k(   35) = (   0.5000000  -0.3000000   0.7000000), wk =   0.0480000
        k(   36) = (  -0.2000000   0.6000000   0.0000000), wk =   0.0480000
        k(   37) = (   0.7000000  -0.3000000   0.9000000), wk =   0.0960000
        k(   38) = (   0.6000000  -0.2000000   0.8000000), wk =   0.0960000
        k(   39) = (   0.5000000  -0.1000000   0.7000000), wk =   0.0960000
        k(   40) = (   0.4000000   0.0000000   0.6000000), wk =   0.0480000
        k(   41) = (   0.8000000  -0.2000000   1.0000000), wk =   0.0480000
        k(   42) = (   0.7000000  -0.1000000   0.9000000), wk =   0.0960000
        k(   43) = (   0.6000000   0.0000000   0.8000000), wk =   0.0480000
        k(   44) = (  -0.2000000  -1.0000000   0.0000000), wk =   0.0240000
        k(   45) = (   0.6000000  -0.2000000   1.0000000), wk =   0.0480000
        k(   46) = (   0.5000000  -0.1000000   0.9000000), wk =   0.0480000
        k(   47) = (  -0.4000000  -1.0000000   0.0000000), wk =   0.0240000

     Dense  grid:    36325 G-vectors     FFT dimensions: (  48,  48,  48)

     Largest allocated arrays     est. size (Mb)     dimensions
        Kohn-Sham Wavefunctions         0.28 Mb     (    4591,    4)
        NL pseudopotentials             1.12 Mb     (    4591,   16)
        Each V/rho on FFT grid          1.69 Mb     (  110592)
        Each G-vector array             0.28 Mb     (   36325)
        G-vector shells                 0.00 Mb     (     357)
     Largest temporary arrays     est. size (Mb)     dimensions
        Auxiliary wavefunctions         1.12 Mb     (    4591,   16)
        Each subspace H/S matrix        0.00 Mb     (      16,   16)
        Each <psi_i|beta_j> matrix      0.00 Mb     (      16,    4)
        Arrays for rho mixing          13.50 Mb     (  110592,    8)

     Initial potential from superposition of free atoms

     starting charge    7.99888, renormalised to    8.00000
     Starting wfc are    8 randomized atomic wfcs
     Checking if some PAW data can be deallocated... 

     total cpu time spent up to now is        4.8 secs

     per-process dynamical memory:    36.8 Mb

     Self-consistent Calculation

     iteration #  1     ecut=   100.00 Ry     beta=0.70
     Davidson diagonalization with overlap
     ethr =  1.00E-02,  avg # of iterations =  2.0

     Threshold (ethr) on eigenvalues was too large:
     Diagonalizing with lowered threshold

     Davidson diagonalization with overlap
     ethr =  7.21E-04,  avg # of iterations =  1.0

     total cpu time spent up to now is       15.8 secs

     total energy              =     -93.45150199 Ry
     Harris-Foulkes estimate   =     -93.46527947 Ry
     estimated scf accuracy    <       0.05688173 Ry

     iteration #  2     ecut=   100.00 Ry     beta=0.70
     Davidson diagonalization with overlap
     ethr =  7.11E-04,  avg # of iterations =  1.0

     total cpu time spent up to now is       20.8 secs

     total energy              =     -93.45362022 Ry
     Harris-Foulkes estimate   =     -93.45375363 Ry
     estimated scf accuracy    <       0.00244315 Ry

     iteration #  3     ecut=   100.00 Ry     beta=0.70
     Davidson diagonalization with overlap
     ethr =  3.05E-05,  avg # of iterations =  2.1

     total cpu time spent up to now is       26.4 secs

     total energy              =     -93.45391614 Ry
     Harris-Foulkes estimate   =     -93.45393575 Ry
     estimated scf accuracy    <       0.00005477 Ry

     iteration #  4     ecut=   100.00 Ry     beta=0.70
     Davidson diagonalization with overlap
     ethr =  6.85E-07,  avg # of iterations =  2.9

     total cpu time spent up to now is       33.6 secs

     total energy              =     -93.45394258 Ry
     Harris-Foulkes estimate   =     -93.45394382 Ry
     estimated scf accuracy    <       0.00000320 Ry

     iteration #  5     ecut=   100.00 Ry     beta=0.70
     Davidson diagonalization with overlap
     ethr =  4.00E-08,  avg # of iterations =  2.6

     total cpu time spent up to now is       40.3 secs

     End of self-consistent calculation

          k = 0.0000 0.0000 0.0000 (  4573 PWs)   bands (ev):

    -5.7539   6.2176   6.2176   6.2176

          k =-0.1000 0.1000-0.1000 (  4582 PWs)   bands (ev):

    -5.6228   5.0712   6.0190   6.0190

          k =-0.2000 0.2000-0.2000 (  4549 PWs)   bands (ev):

    -5.2357   3.2070   5.6377   5.6377

          k =-0.3000 0.3000-0.3000 (  4576 PWs)   bands (ev):

    -4.6194   1.4190   5.3023   5.3023

          k =-0.4000 0.4000-0.4000 (  4543 PWs)   bands (ev):

    -3.8711  -0.0588   5.0896   5.0896

          k = 0.5000-0.5000 0.5000 (  4512 PWs)   bands (ev):

    -3.4188  -0.7578   5.0178   5.0178

          k = 0.0000 0.2000 0.0000 (  4581 PWs)   bands (ev):

    -5.5788   5.2785   5.6406   5.6406

          k =-0.1000 0.3000-0.1000 (  4572 PWs)   bands (ev):

    -5.2758   3.7648   5.2050   5.3765

          k =-0.2000 0.4000-0.2000 (  4591 PWs)   bands (ev):

    -4.7314   2.0026   4.8856   4.9426

          k =-0.3000 0.5000-0.3000 (  4569 PWs)   bands (ev):

    -4.0063   0.4275   4.5304   4.7379

          k = 0.6000-0.4000 0.6000 (  4552 PWs)   bands (ev):

    -3.3643  -0.6112   4.2396   4.7709

          k = 0.5000-0.3000 0.5000 (  4554 PWs)   bands (ev):

    -3.5319  -0.3620   4.1110   4.9710

          k = 0.4000-0.2000 0.4000 (  4565 PWs)   bands (ev):

    -4.2622   0.9220   4.1708   5.3062

          k = 0.3000-0.1000 0.3000 (  4573 PWs)   bands (ev):

    -4.9391   2.5732   4.4464   5.7131

          k = 0.2000 0.0000 0.2000 (  4577 PWs)   bands (ev):

    -5.4059   4.1858   5.0562   6.0408

          k = 0.0000 0.4000 0.0000 (  4588 PWs)   bands (ev):

    -5.0574   3.5930   4.7281   4.7281

          k =-0.1000 0.5000-0.1000 (  4579 PWs)   bands (ev):

    -4.5909   2.3451   4.2204   4.3794

          k =-0.2000 0.6000-0.2000 (  4567 PWs)   bands (ev):

    -3.9145   0.9061   3.5915   4.2195

          k = 0.7000-0.3000 0.7000 (  4552 PWs)   bands (ev):

    -3.1822  -0.2800   3.0811   4.2635

          k = 0.6000-0.2000 0.6000 (  4568 PWs)   bands (ev):

    -3.0289  -0.4888   2.7820   4.5022

          k = 0.5000-0.1000 0.5000 (  4565 PWs)   bands (ev):

    -3.6839   0.4998   2.7611   4.9002

          k = 0.4000 0.0000 0.4000 (  4555 PWs)   bands (ev):

    -4.4030   1.7396   3.2144   5.3714

          k = 0.0000 0.6000 0.0000 (  4568 PWs)   bands (ev):

    -4.2023   1.8001   3.9860   3.9860

          k =-0.1000 0.7000-0.1000 (  4568 PWs)   bands (ev):

    -3.5886   0.7935   3.3590   3.7808

          k = 0.8000-0.2000 0.8000 (  4553 PWs)   bands (ev):

    -2.8372  -0.2137   2.5290   3.7875

          k = 0.7000-0.1000 0.7000 (  4548 PWs)   bands (ev):

    -2.4171  -0.6904   1.9747   4.0033

          k = 0.6000-0.0000 0.6000 (  4548 PWs)   bands (ev):

    -2.9564  -0.1000   1.9486   4.4003

          k = 0.0000 0.8000 0.0000 (  4556 PWs)   bands (ev):

    -3.0378   0.0365   3.5204   3.5204

          k = 0.9000-0.1000 0.9000 (  4557 PWs)   bands (ev):

    -2.3079  -0.8048   2.9337   3.4718

          k = 0.8000 0.0000 0.8000 (  4542 PWs)   bands (ev):

    -1.8311  -1.2258   2.1495   3.6393

          k = 0.0000-1.0000 0.0000 (  4568 PWs)   bands (ev):

    -1.6041  -1.6041   3.3627   3.3627

          k =-0.2000 0.4000 0.0000 (  4577 PWs)   bands (ev):

    -4.8918   2.8420   4.1349   5.2456

          k =-0.3000 0.5000-0.1000 (  4566 PWs)   bands (ev):

    -4.2794   1.4317   3.5459   4.8699

          k = 0.6000-0.4000 0.8000 (  4549 PWs)   bands (ev):

    -3.5313   0.0672   3.3146   4.5192

          k = 0.5000-0.3000 0.7000 (  4546 PWs)   bands (ev):

    -3.0714  -0.6116   3.2549   4.3811

          k =-0.2000 0.6000 0.0000 (  4567 PWs)   bands (ev):

    -4.0524   1.4435   3.4074   4.1303

          k = 0.7000-0.3000 0.9000 (  4560 PWs)   bands (ev):

    -3.3310   0.3407   2.7883   3.8011

          k = 0.6000-0.2000 0.8000 (  4557 PWs)   bands (ev):

    -2.6798  -0.5234   2.3796   3.7454

          k = 0.5000-0.1000 0.7000 (  4538 PWs)   bands (ev):

    -2.8816  -0.2636   2.2286   3.9858

          k = 0.4000 0.0000 0.6000 (  4562 PWs)   bands (ev):

    -3.6183   0.6869   2.5292   4.4266

          k = 0.8000-0.2000 1.0000 (  4567 PWs)   bands (ev):

    -2.9193  -0.0492   2.9959   3.3226

          k = 0.7000-0.1000 0.9000 (  4555 PWs)   bands (ev):

    -2.1798  -0.8246   2.2931   3.2318

          k = 0.6000 0.0000 0.8000 (  4555 PWs)   bands (ev):

    -2.1853  -0.7980   1.8767   3.5019

          k =-0.2000-1.0000 0.0000 (  4570 PWs)   bands (ev):

    -1.5509  -1.5509   2.9530   2.9530

          k = 0.6000-0.2000 1.0000 (  4557 PWs)   bands (ev):

    -2.5979  -0.3474   2.2345   3.2226

          k = 0.5000-0.1000 0.9000 (  4548 PWs)   bands (ev):

    -2.0859  -0.8572   2.0765   2.9711

          k =-0.4000-1.0000 0.0000 (  4548 PWs)   bands (ev):

    -1.4570  -1.4570   2.4390   2.4390

     highest occupied level (ev):     6.2176

!    total energy              =     -93.45394349 Ry
     Harris-Foulkes estimate   =     -93.45394356 Ry
     estimated scf accuracy    <       0.00000008 Ry

     total all-electron energy =     -1160.145680 Ry

     The total energy is the sum of the following terms:

     one-electron contribution =       5.74077844 Ry
     hartree contribution      =       1.09709249 Ry
     xc contribution           =     -12.25628234 Ry
     ewald contribution        =     -16.80092957 Ry
     one-center paw contrib.   =     -71.23460251 Ry

     convergence has been achieved in   5 iterations

     Forces acting on atoms (Ry/au):

     atom    1 type  1   force =     0.00000000    0.00000000    0.00000000
     atom    2 type  1   force =     0.00000000    0.00000000    0.00000000

     Total force =     0.000000     Total SCF correction =     0.000000


     entering subroutine stress ...

          total   stress  (Ry/bohr**3)                   (kbar)     P=   18.87
   0.00012829   0.00000000   0.00000000         18.87      0.00      0.00
   0.00000000   0.00012829  -0.00000000          0.00     18.87     -0.00
   0.00000000  -0.00000000   0.00012829          0.00     -0.00     18.87


     Writing output data file pwscf.save
 
     init_run     :      4.46s CPU      4.49s WALL (       1 calls)
     electrons    :     35.35s CPU     35.48s WALL (       1 calls)
     forces       :      0.53s CPU      0.53s WALL (       1 calls)
     stress       :      1.89s CPU      1.89s WALL (       1 calls)

     Called by init_run:
     wfcinit      :      3.32s CPU      3.34s WALL (       1 calls)
     potinit      :      0.31s CPU      0.32s WALL (       1 calls)

     Called by electrons:
     c_bands      :     27.33s CPU     27.42s WALL (       6 calls)
     sum_band     :      6.15s CPU      6.18s WALL (       6 calls)
     v_of_rho     :      0.79s CPU      0.80s WALL (       6 calls)
     newd         :      0.38s CPU      0.38s WALL (       6 calls)
     mix_rho      :      0.07s CPU      0.07s WALL (       6 calls)

     Called by c_bands:
     init_us_2    :      1.21s CPU      1.22s WALL (     705 calls)
     cegterg      :     25.40s CPU     25.46s WALL (     282 calls)

     Called by *egterg:
     h_psi        :     26.38s CPU     26.45s WALL (     876 calls)
     s_psi        :      0.48s CPU      0.48s WALL (     876 calls)
     g_psi        :      0.22s CPU      0.21s WALL (     547 calls)
     cdiaghg      :      0.09s CPU      0.10s WALL (     782 calls)

     Called by h_psi:
     add_vuspsi   :      0.48s CPU      0.48s WALL (     876 calls)

     General routines
     calbec       :      0.76s CPU      0.77s WALL (    1252 calls)
     fft          :      0.62s CPU      0.63s WALL (     105 calls)
     fftw         :     27.02s CPU     27.04s WALL (    7816 calls)
     davcio       :      0.00s CPU      0.01s WALL (      47 calls)
 
     Parallel routines
     fft_scatter  :      3.45s CPU      3.45s WALL (    7921 calls)

     PAW routines
     PAW_pot      :      0.95s CPU      0.95s WALL (       6 calls)
     PAW_symme    :      0.00s CPU      0.00s WALL (      12 calls)
 
     PWSCF        :    42.73s CPU        43.00s WALL

 
   This run was terminated on:  20:27:24  28Apr2015            

=------------------------------------------------------------------------------=
   JOB DONE.
=------------------------------------------------------------------------------=
