
     Program PWSCF v.5.1 starts on 28Apr2015 at 20:18:54 

     This program is part of the open-source Quantum ESPRESSO suite
     for quantum simulation of materials; please cite
         "P. Giannozzi et al., J. Phys.:Condens. Matter 21 395502 (2009);
          URL http://www.quantum-espresso.org", 
     in publications or presentations arising from this work. More details at
     http://www.quantum-espresso.org/quote

     Parallel version (MPI), running on     1 processors
     Waiting for input...
     Reading input from standard input
Warning: card &IONS ignored
Warning: card / ignored
Warning: card &CELL ignored
Warning: card / ignored

     Current dimensions of program PWSCF are:
     Max number of different atomic species (ntypx) = 10
     Max number of k-points (npk) =  40000
     Max angular momentum in pseudopotentials (lmaxx) =  3
               file Si.pbe-n-kjpaw_psl.0.1.UPF: wavefunction(s)  3S renormalized

     Subspace diagonalization in iterative solution of the eigenvalue problem:
     a serial algorithm will be used

 
     G-vector sticks info
     --------------------
     sticks:   dense  smooth     PW     G-vecs:    dense   smooth      PW
     Sum         151     151     55                 1139     1139     283
 


     bravais-lattice index     =            2
     lattice parameter (alat)  =      10.2600  a.u.
     unit-cell volume          =     270.0114 (a.u.)^3
     number of atoms/cell      =            2
     number of atomic types    =            1
     number of electrons       =         8.00
     number of Kohn-Sham states=            4
     kinetic-energy cutoff     =      10.0000  Ry
     charge density cutoff     =      40.0000  Ry
     convergence threshold     =      1.0E-06
     mixing beta               =       0.7000
     number of iterations used =            8  plain     mixing
     Exchange-correlation      =  SLA  PW   PBX  PBC ( 1  4  3  4 0)

     celldm(1)=  10.260000  celldm(2)=   0.000000  celldm(3)=   0.000000
     celldm(4)=   0.000000  celldm(5)=   0.000000  celldm(6)=   0.000000

     crystal axes: (cart. coord. in units of alat)
               a(1) = (  -0.500000   0.000000   0.500000 )  
               a(2) = (   0.000000   0.500000   0.500000 )  
               a(3) = (  -0.500000   0.500000   0.000000 )  

     reciprocal axes: (cart. coord. in units 2 pi/alat)
               b(1) = ( -1.000000 -1.000000  1.000000 )  
               b(2) = (  1.000000  1.000000  1.000000 )  
               b(3) = ( -1.000000  1.000000 -1.000000 )  


     PseudoPot. # 1 for Si read from file:
     ./Si.pbe-n-kjpaw_psl.0.1.UPF
     MD5 check sum: b9d333a40e496bef61db012f150758bf
     Pseudo is Projector augmented-wave + core cor, Zval =  4.0
     Generated using "atomic" code by A. Dal Corso  v.5.0.2 svn rev. 9415
     Shape of augmentation charge: PSQ
     Using radial grid of 1141 points,  4 beta functions with: 
                l(1) =   0
                l(2) =   0
                l(3) =   1
                l(4) =   1
     Q(r) pseudized with 0 coefficients 


     atomic species   valence    mass     pseudopotential
        Si             4.00    28.05500     Si( 1.00)

     24 Sym. Ops. (no inversion) found
          (note: 24 additional sym.ops. were found but ignored
           their fractional translations are incommensurate with FFT grid)


   Cartesian axes

     site n.     atom                  positions (alat units)
         1           Si  tau(   1) = (   0.0000000   0.0000000   0.0000000  )
         2           Si  tau(   2) = (  -0.2500000   0.2500000   0.2500000  )

     number of k points=    29
                       cart. coord. in units 2pi/alat
        k(    1) = (   0.0000000   0.0000000   0.0000000), wk =   0.0039062
        k(    2) = (  -0.1250000   0.1250000  -0.1250000), wk =   0.0312500
        k(    3) = (  -0.2500000   0.2500000  -0.2500000), wk =   0.0312500
        k(    4) = (  -0.3750000   0.3750000  -0.3750000), wk =   0.0312500
        k(    5) = (   0.5000000  -0.5000000   0.5000000), wk =   0.0156250
        k(    6) = (   0.0000000   0.2500000   0.0000000), wk =   0.0234375
        k(    7) = (  -0.1250000   0.3750000  -0.1250000), wk =   0.0937500
        k(    8) = (  -0.2500000   0.5000000  -0.2500000), wk =   0.0937500
        k(    9) = (   0.6250000  -0.3750000   0.6250000), wk =   0.0937500
        k(   10) = (   0.5000000  -0.2500000   0.5000000), wk =   0.0937500
        k(   11) = (   0.3750000  -0.1250000   0.3750000), wk =   0.0937500
        k(   12) = (   0.2500000   0.0000000   0.2500000), wk =   0.0468750
        k(   13) = (   0.0000000   0.5000000   0.0000000), wk =   0.0234375
        k(   14) = (  -0.1250000   0.6250000  -0.1250000), wk =   0.0937500
        k(   15) = (   0.7500000  -0.2500000   0.7500000), wk =   0.0937500
        k(   16) = (   0.6250000  -0.1250000   0.6250000), wk =   0.0937500
        k(   17) = (   0.5000000   0.0000000   0.5000000), wk =   0.0468750
        k(   18) = (   0.0000000   0.7500000   0.0000000), wk =   0.0234375
        k(   19) = (   0.8750000  -0.1250000   0.8750000), wk =   0.0937500
        k(   20) = (   0.7500000   0.0000000   0.7500000), wk =   0.0468750
        k(   21) = (   0.0000000  -1.0000000   0.0000000), wk =   0.0117188
        k(   22) = (  -0.2500000   0.5000000   0.0000000), wk =   0.0937500
        k(   23) = (   0.6250000  -0.3750000   0.8750000), wk =   0.1875000
        k(   24) = (   0.5000000  -0.2500000   0.7500000), wk =   0.0937500
        k(   25) = (   0.7500000  -0.2500000   1.0000000), wk =   0.0937500
        k(   26) = (   0.6250000  -0.1250000   0.8750000), wk =   0.1875000
        k(   27) = (   0.5000000   0.0000000   0.7500000), wk =   0.0937500
        k(   28) = (  -0.2500000  -1.0000000   0.0000000), wk =   0.0468750
        k(   29) = (  -0.5000000  -1.0000000   0.0000000), wk =   0.0234375

     Dense  grid:     1139 G-vectors     FFT dimensions: (  15,  15,  15)

     Largest allocated arrays     est. size (Mb)     dimensions
        Kohn-Sham Wavefunctions         0.01 Mb     (     153,    4)
        NL pseudopotentials             0.04 Mb     (     153,   16)
        Each V/rho on FFT grid          0.05 Mb     (    3375)
        Each G-vector array             0.01 Mb     (    1139)
        G-vector shells                 0.00 Mb     (      37)
     Largest temporary arrays     est. size (Mb)     dimensions
        Auxiliary wavefunctions         0.04 Mb     (     153,   16)
        Each subspace H/S matrix        0.00 Mb     (      16,   16)
        Each <psi_i|beta_j> matrix      0.00 Mb     (      16,    4)
        Arrays for rho mixing           0.41 Mb     (    3375,    8)

     Check: negative/imaginary core charge=   -0.000249    0.000000

     Initial potential from superposition of free atoms

     starting charge    7.99888, renormalised to    8.00000
     Starting wfc are    8 randomized atomic wfcs
     Checking if some PAW data can be deallocated... 

     total cpu time spent up to now is        0.7 secs

     per-process dynamical memory:     5.8 Mb

     Self-consistent Calculation

     iteration #  1     ecut=    10.00 Ry     beta=0.70
     Davidson diagonalization with overlap
     ethr =  1.00E-02,  avg # of iterations =  2.0

     Threshold (ethr) on eigenvalues was too large:
     Diagonalizing with lowered threshold

     Davidson diagonalization with overlap
     ethr =  6.91E-04,  avg # of iterations =  1.1

     total cpu time spent up to now is        1.1 secs

     total energy              =     -93.44553739 Ry
     Harris-Foulkes estimate   =     -93.45802003 Ry
     estimated scf accuracy    <       0.05557656 Ry

     iteration #  2     ecut=    10.00 Ry     beta=0.70
     Davidson diagonalization with overlap
     ethr =  6.95E-04,  avg # of iterations =  1.0

     total cpu time spent up to now is        1.3 secs

     total energy              =     -93.44714996 Ry
     Harris-Foulkes estimate   =     -93.44739642 Ry
     estimated scf accuracy    <       0.00242432 Ry

     iteration #  3     ecut=    10.00 Ry     beta=0.70
     Davidson diagonalization with overlap
     ethr =  3.03E-05,  avg # of iterations =  1.8

     total cpu time spent up to now is        1.5 secs

     total energy              =     -93.44741966 Ry
     Harris-Foulkes estimate   =     -93.44744198 Ry
     estimated scf accuracy    <       0.00004946 Ry

     iteration #  4     ecut=    10.00 Ry     beta=0.70
     Davidson diagonalization with overlap
     ethr =  6.18E-07,  avg # of iterations =  2.6

     total cpu time spent up to now is        1.8 secs

     total energy              =     -93.44743990 Ry
     Harris-Foulkes estimate   =     -93.44744167 Ry
     estimated scf accuracy    <       0.00000432 Ry

     iteration #  5     ecut=    10.00 Ry     beta=0.70
     Davidson diagonalization with overlap
     ethr =  5.40E-08,  avg # of iterations =  2.0

     total cpu time spent up to now is        2.0 secs

     End of self-consistent calculation

          k = 0.0000 0.0000 0.0000 (   137 PWs)   bands (ev):

    -5.7448   6.3032   6.3032   6.3032

          k =-0.1250 0.1250-0.1250 (   153 PWs)   bands (ev):

    -5.5405   4.6665   5.9914   5.9914

          k =-0.2500 0.2500-0.2500 (   150 PWs)   bands (ev):

    -4.9436   2.3235   5.5102   5.5102

          k =-0.3750 0.3750-0.3750 (   147 PWs)   bands (ev):

    -4.0480   0.2927   5.1754   5.1754

          k = 0.5000-0.5000 0.5000 (   138 PWs)   bands (ev):

    -3.4083  -0.7297   5.0628   5.0628

          k = 0.0000 0.2500 0.0000 (   153 PWs)   bands (ev):

    -5.4715   4.9298   5.4661   5.4661

          k =-0.1250 0.3750-0.1250 (   146 PWs)   bands (ev):

    -5.0017   3.0282   4.9529   5.0268

          k =-0.2500 0.5000-0.2500 (   147 PWs)   bands (ev):

    -4.1849   0.9570   4.4283   4.6738

          k = 0.6250-0.3750 0.6250 (   144 PWs)   bands (ev):

    -3.3224  -0.5095   3.9829   4.6962

          k = 0.5000-0.2500 0.5000 (   148 PWs)   bands (ev):

    -3.5670  -0.1404   3.7993   4.9950

          k = 0.3750-0.1250 0.3750 (   148 PWs)   bands (ev):

    -4.4919   1.6196   3.9516   5.4933

          k = 0.2500 0.0000 0.2500 (   145 PWs)   bands (ev):

    -5.2034   3.5715   4.6421   5.9851

          k = 0.0000 0.5000 0.0000 (   149 PWs)   bands (ev):

    -4.6606   2.7290   4.3700   4.3700

          k =-0.1250 0.6250-0.1250 (   143 PWs)   bands (ev):

    -3.9487   1.2986   3.5899   4.0494

          k = 0.7500-0.2500 0.7500 (   143 PWs)   bands (ev):

    -3.0209  -0.1470   2.7244   4.0504

          k = 0.6250-0.1250 0.6250 (   143 PWs)   bands (ev):

    -2.8159  -0.4042   2.2635   4.3728

          k = 0.5000 0.0000 0.5000 (   144 PWs)   bands (ev):

    -3.6964   0.7575   2.5044   4.9360

          k = 0.0000 0.7500 0.0000 (   145 PWs)   bands (ev):

    -3.3447   0.4919   3.6391   3.6391

          k = 0.8750-0.1250 0.8750 (   140 PWs)   bands (ev):

    -2.4450  -0.5992   2.8180   3.5683

          k = 0.7500 0.0000 0.7500 (   138 PWs)   bands (ev):

    -2.0053  -0.9944   1.9551   3.8312

          k = 0.0000-1.0000 0.0000 (   150 PWs)   bands (ev):

    -1.5910  -1.5903   3.3890   3.3890

          k =-0.2500 0.5000 0.0000 (   144 PWs)   bands (ev):

    -4.4125   1.9542   3.5479   4.8392

          k = 0.6250-0.3750 0.8750 (   143 PWs)   bands (ev):

    -3.5221   0.3963   2.9388   4.3340

          k = 0.5000-0.2500 0.7500 (   142 PWs)   bands (ev):

    -2.8683  -0.5490   2.8098   4.1010

          k = 0.7500-0.2500 1.0000 (   149 PWs)   bands (ev):

    -3.1458   0.2695   2.8919   3.4965

          k = 0.6250-0.1250 0.8750 (   142 PWs)   bands (ev):

    -2.2682  -0.6999   2.1957   3.2992

          k = 0.5000 0.0000 0.7500 (   142 PWs)   bands (ev):

    -2.6198  -0.3342   2.0286   3.6787

          k =-0.2500-1.0000 0.0000 (   142 PWs)   bands (ev):

    -1.5115  -1.5108   2.8362   2.8362

          k =-0.5000-1.0000 0.0000 (   144 PWs)   bands (ev):

    -1.4254  -1.4247   2.4021   2.4021

     highest occupied level (ev):     6.3032

!    total energy              =     -93.44744062 Ry
     Harris-Foulkes estimate   =     -93.44744068 Ry
     estimated scf accuracy    <       0.00000008 Ry

     total all-electron energy =     -1160.139177 Ry

     The total energy is the sum of the following terms:

     one-electron contribution =       5.73546368 Ry
     hartree contribution      =       1.09936917 Ry
     xc contribution           =     -12.26353253 Ry
     ewald contribution        =     -16.80092958 Ry
     one-center paw contrib.   =     -71.21781136 Ry

     convergence has been achieved in   5 iterations

     Forces acting on atoms (Ry/au):

     atom    1 type  1   force =     0.00000000    0.00000000    0.00000000
     atom    2 type  1   force =     0.00000000    0.00000000    0.00000000

     Total force =     0.000000     Total SCF correction =     0.000000


     entering subroutine stress ...

          total   stress  (Ry/bohr**3)                   (kbar)     P=   65.50
   0.00044529  -0.00000000   0.00000000         65.50     -0.00      0.00
  -0.00000000   0.00044529   0.00000000         -0.00     65.50      0.00
  -0.00000000  -0.00000000   0.00044529         -0.00     -0.00     65.50


     Writing output data file pwscf.save
 
     init_run     :      0.43s CPU      0.44s WALL (       1 calls)
     electrons    :      1.23s CPU      1.27s WALL (       1 calls)
     forces       :      0.01s CPU      0.01s WALL (       1 calls)
     stress       :      0.04s CPU      0.04s WALL (       1 calls)

     Called by init_run:
     wfcinit      :      0.04s CPU      0.04s WALL (       1 calls)
     potinit      :      0.16s CPU      0.16s WALL (       1 calls)

     Called by electrons:
     c_bands      :      0.34s CPU      0.37s WALL (       6 calls)
     sum_band     :      0.07s CPU      0.07s WALL (       6 calls)
     v_of_rho     :      0.02s CPU      0.02s WALL (       6 calls)
     newd         :      0.01s CPU      0.01s WALL (       6 calls)
     mix_rho      :      0.00s CPU      0.00s WALL (       6 calls)

     Called by c_bands:
     init_us_2    :      0.02s CPU      0.02s WALL (     435 calls)
     cegterg      :      0.30s CPU      0.32s WALL (     174 calls)

     Called by *egterg:
     h_psi        :      0.27s CPU      0.28s WALL (     507 calls)
     s_psi        :      0.01s CPU      0.01s WALL (     507 calls)
     g_psi        :      0.00s CPU      0.00s WALL (     304 calls)
     cdiaghg      :      0.03s CPU      0.03s WALL (     449 calls)

     Called by h_psi:
     add_vuspsi   :      0.01s CPU      0.01s WALL (     507 calls)

     General routines
     calbec       :      0.02s CPU      0.02s WALL (     739 calls)
     fft          :      0.01s CPU      0.01s WALL (     105 calls)
     fftw         :      0.24s CPU      0.27s WALL (    4732 calls)
     davcio       :      0.00s CPU      0.00s WALL (      29 calls)
 
     Parallel routines
     fft_scatter  :      0.02s CPU      0.03s WALL (    4837 calls)

     PAW routines
     PAW_pot      :      0.94s CPU      0.95s WALL (       6 calls)
     PAW_symme    :      0.00s CPU      0.00s WALL (      12 calls)
 
     PWSCF        :     2.14s CPU         2.32s WALL

 
   This run was terminated on:  20:18:57  28Apr2015            

=------------------------------------------------------------------------------=
   JOB DONE.
=------------------------------------------------------------------------------=
