
     Program PWSCF v.5.1 starts on 28Apr2015 at 20:14:24 

     This program is part of the open-source Quantum ESPRESSO suite
     for quantum simulation of materials; please cite
         "P. Giannozzi et al., J. Phys.:Condens. Matter 21 395502 (2009);
          URL http://www.quantum-espresso.org", 
     in publications or presentations arising from this work. More details at
     http://www.quantum-espresso.org/quote

     Parallel version (MPI), running on     1 processors
     Waiting for input...
     Reading input from standard input
Warning: card &IONS ignored
Warning: card / ignored
Warning: card &CELL ignored
Warning: card / ignored

     Current dimensions of program PWSCF are:
     Max number of different atomic species (ntypx) = 10
     Max number of k-points (npk) =  40000
     Max angular momentum in pseudopotentials (lmaxx) =  3
               file Si.pbe-n-kjpaw_psl.0.1.UPF: wavefunction(s)  3S renormalized

     Subspace diagonalization in iterative solution of the eigenvalue problem:
     a serial algorithm will be used

 
     G-vector sticks info
     --------------------
     sticks:   dense  smooth     PW     G-vecs:    dense   smooth      PW
     Sum         151     151     55                 1139     1139     283
 


     bravais-lattice index     =            2
     lattice parameter (alat)  =      10.2600  a.u.
     unit-cell volume          =     270.0114 (a.u.)^3
     number of atoms/cell      =            2
     number of atomic types    =            1
     number of electrons       =         8.00
     number of Kohn-Sham states=            4
     kinetic-energy cutoff     =      10.0000  Ry
     charge density cutoff     =      40.0000  Ry
     convergence threshold     =      1.0E-06
     mixing beta               =       0.7000
     number of iterations used =            8  plain     mixing
     Exchange-correlation      =  SLA  PW   PBX  PBC ( 1  4  3  4 0)

     celldm(1)=  10.260000  celldm(2)=   0.000000  celldm(3)=   0.000000
     celldm(4)=   0.000000  celldm(5)=   0.000000  celldm(6)=   0.000000

     crystal axes: (cart. coord. in units of alat)
               a(1) = (  -0.500000   0.000000   0.500000 )  
               a(2) = (   0.000000   0.500000   0.500000 )  
               a(3) = (  -0.500000   0.500000   0.000000 )  

     reciprocal axes: (cart. coord. in units 2 pi/alat)
               b(1) = ( -1.000000 -1.000000  1.000000 )  
               b(2) = (  1.000000  1.000000  1.000000 )  
               b(3) = ( -1.000000  1.000000 -1.000000 )  


     PseudoPot. # 1 for Si read from file:
     ./Si.pbe-n-kjpaw_psl.0.1.UPF
     MD5 check sum: b9d333a40e496bef61db012f150758bf
     Pseudo is Projector augmented-wave + core cor, Zval =  4.0
     Generated using "atomic" code by A. Dal Corso  v.5.0.2 svn rev. 9415
     Shape of augmentation charge: PSQ
     Using radial grid of 1141 points,  4 beta functions with: 
                l(1) =   0
                l(2) =   0
                l(3) =   1
                l(4) =   1
     Q(r) pseudized with 0 coefficients 


     atomic species   valence    mass     pseudopotential
        Si             4.00    28.05500     Si( 1.00)

     24 Sym. Ops. (no inversion) found
          (note: 24 additional sym.ops. were found but ignored
           their fractional translations are incommensurate with FFT grid)


   Cartesian axes

     site n.     atom                  positions (alat units)
         1           Si  tau(   1) = (   0.0000000   0.0000000   0.0000000  )
         2           Si  tau(   2) = (  -0.2500000   0.2500000   0.2500000  )

     number of k points=    10
                       cart. coord. in units 2pi/alat
        k(    1) = (   0.0000000   0.0000000   0.0000000), wk =   0.0160000
        k(    2) = (  -0.2000000   0.2000000  -0.2000000), wk =   0.1280000
        k(    3) = (  -0.4000000   0.4000000  -0.4000000), wk =   0.1280000
        k(    4) = (   0.0000000   0.4000000   0.0000000), wk =   0.0960000
        k(    5) = (  -0.2000000   0.6000000  -0.2000000), wk =   0.3840000
        k(    6) = (   0.6000000  -0.2000000   0.6000000), wk =   0.3840000
        k(    7) = (   0.4000000   0.0000000   0.4000000), wk =   0.1920000
        k(    8) = (   0.0000000   0.8000000   0.0000000), wk =   0.0960000
        k(    9) = (   0.8000000   0.0000000   0.8000000), wk =   0.1920000
        k(   10) = (   0.6000000  -0.2000000   1.0000000), wk =   0.3840000

     Dense  grid:     1139 G-vectors     FFT dimensions: (  15,  15,  15)

     Largest allocated arrays     est. size (Mb)     dimensions
        Kohn-Sham Wavefunctions         0.01 Mb     (     150,    4)
        NL pseudopotentials             0.04 Mb     (     150,   16)
        Each V/rho on FFT grid          0.05 Mb     (    3375)
        Each G-vector array             0.01 Mb     (    1139)
        G-vector shells                 0.00 Mb     (      37)
     Largest temporary arrays     est. size (Mb)     dimensions
        Auxiliary wavefunctions         0.04 Mb     (     150,   16)
        Each subspace H/S matrix        0.00 Mb     (      16,   16)
        Each <psi_i|beta_j> matrix      0.00 Mb     (      16,    4)
        Arrays for rho mixing           0.41 Mb     (    3375,    8)

     Check: negative/imaginary core charge=   -0.000249    0.000000

     Initial potential from superposition of free atoms

     starting charge    7.99888, renormalised to    8.00000
     Starting wfc are    8 randomized atomic wfcs
     Checking if some PAW data can be deallocated... 

     total cpu time spent up to now is        1.8 secs

     per-process dynamical memory:     5.8 Mb

     Self-consistent Calculation

     iteration #  1     ecut=    10.00 Ry     beta=0.70
     Davidson diagonalization with overlap
     ethr =  1.00E-02,  avg # of iterations =  2.0

     Threshold (ethr) on eigenvalues was too large:
     Diagonalizing with lowered threshold

     Davidson diagonalization with overlap
     ethr =  7.17E-04,  avg # of iterations =  1.1

     total cpu time spent up to now is        2.0 secs

     total energy              =     -93.44116775 Ry
     Harris-Foulkes estimate   =     -93.45425747 Ry
     estimated scf accuracy    <       0.05777814 Ry

     iteration #  2     ecut=    10.00 Ry     beta=0.70
     Davidson diagonalization with overlap
     ethr =  7.22E-04,  avg # of iterations =  1.0

     total cpu time spent up to now is        2.2 secs

     total energy              =     -93.44282173 Ry
     Harris-Foulkes estimate   =     -93.44308382 Ry
     estimated scf accuracy    <       0.00253523 Ry

     iteration #  3     ecut=    10.00 Ry     beta=0.70
     Davidson diagonalization with overlap
     ethr =  3.17E-05,  avg # of iterations =  1.7

     total cpu time spent up to now is        2.3 secs

     total energy              =     -93.44306872 Ry
     Harris-Foulkes estimate   =     -93.44308857 Ry
     estimated scf accuracy    <       0.00004894 Ry

     iteration #  4     ecut=    10.00 Ry     beta=0.70
     Davidson diagonalization with overlap
     ethr =  6.12E-07,  avg # of iterations =  2.7

     total cpu time spent up to now is        2.5 secs

     total energy              =     -93.44309087 Ry
     Harris-Foulkes estimate   =     -93.44309212 Ry
     estimated scf accuracy    <       0.00000296 Ry

     iteration #  5     ecut=    10.00 Ry     beta=0.70
     Davidson diagonalization with overlap
     ethr =  3.70E-08,  avg # of iterations =  2.2

     total cpu time spent up to now is        2.7 secs

     End of self-consistent calculation

          k = 0.0000 0.0000 0.0000 (   137 PWs)   bands (ev):

    -5.7321   6.3195   6.3195   6.3195

          k =-0.2000 0.2000-0.2000 (   150 PWs)   bands (ev):

    -5.2136   3.2612   5.7096   5.7096

          k =-0.4000 0.4000-0.4000 (   147 PWs)   bands (ev):

    -3.8476  -0.0203   5.1488   5.1488

          k = 0.0000 0.4000 0.0000 (   149 PWs)   bands (ev):

    -5.0350   3.6449   4.7906   4.7906

          k =-0.2000 0.6000-0.2000 (   145 PWs)   bands (ev):

    -3.8906   0.9451   3.6502   4.2756

          k = 0.6000-0.2000 0.6000 (   149 PWs)   bands (ev):

    -3.0041  -0.4533   2.8377   4.5575

          k = 0.4000 0.0000 0.4000 (   144 PWs)   bands (ev):

    -4.3797   1.7827   3.2704   5.4376

          k = 0.0000 0.8000 0.0000 (   141 PWs)   bands (ev):

    -3.0122   0.0739   3.5630   3.5630

          k = 0.8000 0.0000 0.8000 (   134 PWs)   bands (ev):

    -1.8023  -1.1931   2.2026   3.6919

          k = 0.6000-0.2000 1.0000 (   142 PWs)   bands (ev):

    -2.5711  -0.3132   2.2871   3.2796

     highest occupied level (ev):     6.3195

!    total energy              =     -93.44309151 Ry
     Harris-Foulkes estimate   =     -93.44309158 Ry
     estimated scf accuracy    <       0.00000009 Ry

     total all-electron energy =     -1160.134828 Ry

     The total energy is the sum of the following terms:

     one-electron contribution =       5.73544419 Ry
     hartree contribution      =       1.10828619 Ry
     xc contribution           =     -12.26797300 Ry
     ewald contribution        =     -16.80092958 Ry
     one-center paw contrib.   =     -71.21791932 Ry

     convergence has been achieved in   5 iterations

     Forces acting on atoms (Ry/au):

     atom    1 type  1   force =     0.00000000    0.00000000    0.00000000
     atom    2 type  1   force =     0.00000000    0.00000000    0.00000000

     Total force =     0.000000     Total SCF correction =     0.000000


     entering subroutine stress ...

          total   stress  (Ry/bohr**3)                   (kbar)     P=   67.36
   0.00045787  -0.00000000  -0.00000000         67.36     -0.00     -0.00
  -0.00000000   0.00045787   0.00000000         -0.00     67.36      0.00
  -0.00000000   0.00000000   0.00045787         -0.00      0.00     67.36


     Writing output data file pwscf.save
 
     init_run     :      0.41s CPU      1.46s WALL (       1 calls)
     electrons    :      0.97s CPU      0.98s WALL (       1 calls)
     forces       :      0.01s CPU      0.01s WALL (       1 calls)
     stress       :      0.03s CPU      0.03s WALL (       1 calls)

     Called by init_run:
     wfcinit      :      0.01s CPU      0.02s WALL (       1 calls)
     potinit      :      0.16s CPU      0.16s WALL (       1 calls)

     Called by electrons:
     c_bands      :      0.12s CPU      0.13s WALL (       6 calls)
     sum_band     :      0.03s CPU      0.03s WALL (       6 calls)
     v_of_rho     :      0.02s CPU      0.02s WALL (       6 calls)
     newd         :      0.01s CPU      0.01s WALL (       6 calls)
     mix_rho      :      0.00s CPU      0.00s WALL (       6 calls)

     Called by c_bands:
     init_us_2    :      0.01s CPU      0.01s WALL (     150 calls)
     cegterg      :      0.11s CPU      0.11s WALL (      60 calls)

     Called by *egterg:
     h_psi        :      0.10s CPU      0.10s WALL (     177 calls)
     s_psi        :      0.00s CPU      0.00s WALL (     177 calls)
     g_psi        :      0.00s CPU      0.00s WALL (     107 calls)
     cdiaghg      :      0.01s CPU      0.01s WALL (     157 calls)

     Called by h_psi:
     add_vuspsi   :      0.01s CPU      0.00s WALL (     177 calls)

     General routines
     calbec       :      0.00s CPU      0.01s WALL (     257 calls)
     fft          :      0.01s CPU      0.01s WALL (     105 calls)
     fftw         :      0.09s CPU      0.09s WALL (    1632 calls)
     davcio       :      0.00s CPU      0.00s WALL (      10 calls)
 
     Parallel routines
     fft_scatter  :      0.01s CPU      0.01s WALL (    1737 calls)

     PAW routines
     PAW_pot      :      0.95s CPU      0.95s WALL (       6 calls)
     PAW_symme    :      0.00s CPU      0.00s WALL (      12 calls)
 
     PWSCF        :     1.79s CPU         2.90s WALL

 
   This run was terminated on:  20:14:27  28Apr2015            

=------------------------------------------------------------------------------=
   JOB DONE.
=------------------------------------------------------------------------------=
