
     Program PWSCF v.5.1 starts on 28Apr2015 at 20:23:57 

     This program is part of the open-source Quantum ESPRESSO suite
     for quantum simulation of materials; please cite
         "P. Giannozzi et al., J. Phys.:Condens. Matter 21 395502 (2009);
          URL http://www.quantum-espresso.org", 
     in publications or presentations arising from this work. More details at
     http://www.quantum-espresso.org/quote

     Parallel version (MPI), running on     1 processors
     Waiting for input...
     Reading input from standard input
Warning: card &IONS ignored
Warning: card / ignored
Warning: card &CELL ignored
Warning: card / ignored

     Current dimensions of program PWSCF are:
     Max number of different atomic species (ntypx) = 10
     Max number of k-points (npk) =  40000
     Max angular momentum in pseudopotentials (lmaxx) =  3
               file Si.pbe-n-kjpaw_psl.0.1.UPF: wavefunction(s)  3S renormalized

     Subspace diagonalization in iterative solution of the eigenvalue problem:
     a serial algorithm will be used

 
     G-vector sticks info
     --------------------
     sticks:   dense  smooth     PW     G-vecs:    dense   smooth      PW
     Sum         151     151     55                 1139     1139     283
 


     bravais-lattice index     =            2
     lattice parameter (alat)  =      10.2600  a.u.
     unit-cell volume          =     270.0114 (a.u.)^3
     number of atoms/cell      =            2
     number of atomic types    =            1
     number of electrons       =         8.00
     number of Kohn-Sham states=            4
     kinetic-energy cutoff     =      10.0000  Ry
     charge density cutoff     =      40.0000  Ry
     convergence threshold     =      1.0E-06
     mixing beta               =       0.7000
     number of iterations used =            8  plain     mixing
     Exchange-correlation      =  SLA  PW   PBX  PBC ( 1  4  3  4 0)

     celldm(1)=  10.260000  celldm(2)=   0.000000  celldm(3)=   0.000000
     celldm(4)=   0.000000  celldm(5)=   0.000000  celldm(6)=   0.000000

     crystal axes: (cart. coord. in units of alat)
               a(1) = (  -0.500000   0.000000   0.500000 )  
               a(2) = (   0.000000   0.500000   0.500000 )  
               a(3) = (  -0.500000   0.500000   0.000000 )  

     reciprocal axes: (cart. coord. in units 2 pi/alat)
               b(1) = ( -1.000000 -1.000000  1.000000 )  
               b(2) = (  1.000000  1.000000  1.000000 )  
               b(3) = ( -1.000000  1.000000 -1.000000 )  


     PseudoPot. # 1 for Si read from file:
     ./Si.pbe-n-kjpaw_psl.0.1.UPF
     MD5 check sum: b9d333a40e496bef61db012f150758bf
     Pseudo is Projector augmented-wave + core cor, Zval =  4.0
     Generated using "atomic" code by A. Dal Corso  v.5.0.2 svn rev. 9415
     Shape of augmentation charge: PSQ
     Using radial grid of 1141 points,  4 beta functions with: 
                l(1) =   0
                l(2) =   0
                l(3) =   1
                l(4) =   1
     Q(r) pseudized with 0 coefficients 


     atomic species   valence    mass     pseudopotential
        Si             4.00    28.05500     Si( 1.00)

     24 Sym. Ops. (no inversion) found
          (note: 24 additional sym.ops. were found but ignored
           their fractional translations are incommensurate with FFT grid)


   Cartesian axes

     site n.     atom                  positions (alat units)
         1           Si  tau(   1) = (   0.0000000   0.0000000   0.0000000  )
         2           Si  tau(   2) = (  -0.2500000   0.2500000   0.2500000  )

     number of k points=    47
                       cart. coord. in units 2pi/alat
        k(    1) = (   0.0000000   0.0000000   0.0000000), wk =   0.0020000
        k(    2) = (  -0.1000000   0.1000000  -0.1000000), wk =   0.0160000
        k(    3) = (  -0.2000000   0.2000000  -0.2000000), wk =   0.0160000
        k(    4) = (  -0.3000000   0.3000000  -0.3000000), wk =   0.0160000
        k(    5) = (  -0.4000000   0.4000000  -0.4000000), wk =   0.0160000
        k(    6) = (   0.5000000  -0.5000000   0.5000000), wk =   0.0080000
        k(    7) = (   0.0000000   0.2000000   0.0000000), wk =   0.0120000
        k(    8) = (  -0.1000000   0.3000000  -0.1000000), wk =   0.0480000
        k(    9) = (  -0.2000000   0.4000000  -0.2000000), wk =   0.0480000
        k(   10) = (  -0.3000000   0.5000000  -0.3000000), wk =   0.0480000
        k(   11) = (   0.6000000  -0.4000000   0.6000000), wk =   0.0480000
        k(   12) = (   0.5000000  -0.3000000   0.5000000), wk =   0.0480000
        k(   13) = (   0.4000000  -0.2000000   0.4000000), wk =   0.0480000
        k(   14) = (   0.3000000  -0.1000000   0.3000000), wk =   0.0480000
        k(   15) = (   0.2000000   0.0000000   0.2000000), wk =   0.0240000
        k(   16) = (   0.0000000   0.4000000   0.0000000), wk =   0.0120000
        k(   17) = (  -0.1000000   0.5000000  -0.1000000), wk =   0.0480000
        k(   18) = (  -0.2000000   0.6000000  -0.2000000), wk =   0.0480000
        k(   19) = (   0.7000000  -0.3000000   0.7000000), wk =   0.0480000
        k(   20) = (   0.6000000  -0.2000000   0.6000000), wk =   0.0480000
        k(   21) = (   0.5000000  -0.1000000   0.5000000), wk =   0.0480000
        k(   22) = (   0.4000000   0.0000000   0.4000000), wk =   0.0240000
        k(   23) = (   0.0000000   0.6000000   0.0000000), wk =   0.0120000
        k(   24) = (  -0.1000000   0.7000000  -0.1000000), wk =   0.0480000
        k(   25) = (   0.8000000  -0.2000000   0.8000000), wk =   0.0480000
        k(   26) = (   0.7000000  -0.1000000   0.7000000), wk =   0.0480000
        k(   27) = (   0.6000000  -0.0000000   0.6000000), wk =   0.0240000
        k(   28) = (   0.0000000   0.8000000   0.0000000), wk =   0.0120000
        k(   29) = (   0.9000000  -0.1000000   0.9000000), wk =   0.0480000
        k(   30) = (   0.8000000   0.0000000   0.8000000), wk =   0.0240000
        k(   31) = (   0.0000000  -1.0000000   0.0000000), wk =   0.0060000
        k(   32) = (  -0.2000000   0.4000000   0.0000000), wk =   0.0480000
        k(   33) = (  -0.3000000   0.5000000  -0.1000000), wk =   0.0960000
        k(   34) = (   0.6000000  -0.4000000   0.8000000), wk =   0.0960000
        k(   35) = (   0.5000000  -0.3000000   0.7000000), wk =   0.0480000
        k(   36) = (  -0.2000000   0.6000000   0.0000000), wk =   0.0480000
        k(   37) = (   0.7000000  -0.3000000   0.9000000), wk =   0.0960000
        k(   38) = (   0.6000000  -0.2000000   0.8000000), wk =   0.0960000
        k(   39) = (   0.5000000  -0.1000000   0.7000000), wk =   0.0960000
        k(   40) = (   0.4000000   0.0000000   0.6000000), wk =   0.0480000
        k(   41) = (   0.8000000  -0.2000000   1.0000000), wk =   0.0480000
        k(   42) = (   0.7000000  -0.1000000   0.9000000), wk =   0.0960000
        k(   43) = (   0.6000000   0.0000000   0.8000000), wk =   0.0480000
        k(   44) = (  -0.2000000  -1.0000000   0.0000000), wk =   0.0240000
        k(   45) = (   0.6000000  -0.2000000   1.0000000), wk =   0.0480000
        k(   46) = (   0.5000000  -0.1000000   0.9000000), wk =   0.0480000
        k(   47) = (  -0.4000000  -1.0000000   0.0000000), wk =   0.0240000

     Dense  grid:     1139 G-vectors     FFT dimensions: (  15,  15,  15)

     Largest allocated arrays     est. size (Mb)     dimensions
        Kohn-Sham Wavefunctions         0.01 Mb     (     153,    4)
        NL pseudopotentials             0.04 Mb     (     153,   16)
        Each V/rho on FFT grid          0.05 Mb     (    3375)
        Each G-vector array             0.01 Mb     (    1139)
        G-vector shells                 0.00 Mb     (      37)
     Largest temporary arrays     est. size (Mb)     dimensions
        Auxiliary wavefunctions         0.04 Mb     (     153,   16)
        Each subspace H/S matrix        0.00 Mb     (      16,   16)
        Each <psi_i|beta_j> matrix      0.00 Mb     (      16,    4)
        Arrays for rho mixing           0.41 Mb     (    3375,    8)

     Check: negative/imaginary core charge=   -0.000249    0.000000

     Initial potential from superposition of free atoms

     starting charge    7.99888, renormalised to    8.00000
     Starting wfc are    8 randomized atomic wfcs
     Checking if some PAW data can be deallocated... 

     total cpu time spent up to now is        0.8 secs

     per-process dynamical memory:     5.8 Mb

     Self-consistent Calculation

     iteration #  1     ecut=    10.00 Ry     beta=0.70
     Davidson diagonalization with overlap
     ethr =  1.00E-02,  avg # of iterations =  2.0

     Threshold (ethr) on eigenvalues was too large:
     Diagonalizing with lowered threshold

     Davidson diagonalization with overlap
     ethr =  6.89E-04,  avg # of iterations =  1.0

     total cpu time spent up to now is        1.2 secs

     total energy              =     -93.44579813 Ry
     Harris-Foulkes estimate   =     -93.45822066 Ry
     estimated scf accuracy    <       0.05535358 Ry

     iteration #  2     ecut=    10.00 Ry     beta=0.70
     Davidson diagonalization with overlap
     ethr =  6.92E-04,  avg # of iterations =  1.0

     total cpu time spent up to now is        1.4 secs

     total energy              =     -93.44739858 Ry
     Harris-Foulkes estimate   =     -93.44764480 Ry
     estimated scf accuracy    <       0.00242133 Ry

     iteration #  3     ecut=    10.00 Ry     beta=0.70
     Davidson diagonalization with overlap
     ethr =  3.03E-05,  avg # of iterations =  1.9

     total cpu time spent up to now is        1.7 secs

     total energy              =     -93.44767082 Ry
     Harris-Foulkes estimate   =     -93.44769374 Ry
     estimated scf accuracy    <       0.00005001 Ry

     iteration #  4     ecut=    10.00 Ry     beta=0.70
     Davidson diagonalization with overlap
     ethr =  6.25E-07,  avg # of iterations =  2.4

     total cpu time spent up to now is        2.0 secs

     total energy              =     -93.44769155 Ry
     Harris-Foulkes estimate   =     -93.44769349 Ry
     estimated scf accuracy    <       0.00000467 Ry

     iteration #  5     ecut=    10.00 Ry     beta=0.70
     Davidson diagonalization with overlap
     ethr =  5.83E-08,  avg # of iterations =  2.0

     total cpu time spent up to now is        2.3 secs

     End of self-consistent calculation

          k = 0.0000 0.0000 0.0000 (   137 PWs)   bands (ev):

    -5.7458   6.3020   6.3020   6.3020

          k =-0.1000 0.1000-0.1000 (   153 PWs)   bands (ev):

    -5.6148   5.1230   6.0830   6.0830

          k =-0.2000 0.2000-0.2000 (   150 PWs)   bands (ev):

    -5.2274   3.2462   5.6933   5.6933

          k =-0.3000 0.3000-0.3000 (   144 PWs)   bands (ev):

    -4.6106   1.4514   5.3541   5.3541

          k =-0.4000 0.4000-0.4000 (   147 PWs)   bands (ev):

    -3.8623  -0.0336   5.1329   5.1329

          k = 0.5000-0.5000 0.5000 (   138 PWs)   bands (ev):

    -3.4094  -0.7306   5.0616   5.0616

          k = 0.0000 0.2000 0.0000 (   153 PWs)   bands (ev):

    -5.5707   5.3292   5.6985   5.6985

          k =-0.1000 0.3000-0.1000 (   150 PWs)   bands (ev):

    -5.2676   3.8045   5.2614   5.4314

          k =-0.2000 0.4000-0.2000 (   147 PWs)   bands (ev):

    -4.7227   2.0348   4.9358   4.9918

          k =-0.3000 0.5000-0.3000 (   147 PWs)   bands (ev):

    -3.9971   0.4536   4.5754   4.7805

          k = 0.6000-0.4000 0.6000 (   147 PWs)   bands (ev):

    -3.3559  -0.5867   4.2840   4.8121

          k = 0.5000-0.3000 0.5000 (   147 PWs)   bands (ev):

    -3.5231  -0.3379   4.1543   5.0149

          k = 0.4000-0.2000 0.4000 (   146 PWs)   bands (ev):

    -4.2531   0.9503   4.2178   5.3541

          k = 0.3000-0.1000 0.3000 (   147 PWs)   bands (ev):

    -4.9305   2.6080   4.4980   5.7663

          k = 0.2000 0.0000 0.2000 (   149 PWs)   bands (ev):

    -5.3977   4.2275   5.1130   6.1031

          k = 0.0000 0.4000 0.0000 (   149 PWs)   bands (ev):

    -5.0489   3.6276   4.7760   4.7760

          k =-0.1000 0.5000-0.1000 (   141 PWs)   bands (ev):

    -4.5819   2.3750   4.2706   4.4278

          k =-0.2000 0.6000-0.2000 (   145 PWs)   bands (ev):

    -3.9050   0.9300   3.6366   4.2613

          k = 0.7000-0.3000 0.7000 (   144 PWs)   bands (ev):

    -3.1727  -0.2570   3.1248   4.3040

          k = 0.6000-0.2000 0.6000 (   149 PWs)   bands (ev):

    -3.0194  -0.4671   2.8248   4.5426

          k = 0.5000-0.1000 0.5000 (   144 PWs)   bands (ev):

    -3.6743   0.5236   2.8029   4.9466

          k = 0.4000 0.0000 0.4000 (   144 PWs)   bands (ev):

    -4.3939   1.7670   3.2580   5.4214

          k = 0.0000 0.6000 0.0000 (   141 PWs)   bands (ev):

    -4.1929   1.8277   4.0250   4.0250

          k =-0.1000 0.7000-0.1000 (   141 PWs)   bands (ev):

    -3.5784   0.8149   3.4001   3.8194

          k = 0.8000-0.2000 0.8000 (   141 PWs)   bands (ev):

    -2.8264  -0.1947   2.5721   3.8251

          k = 0.7000-0.1000 0.7000 (   142 PWs)   bands (ev):

    -2.4063  -0.6718   2.0163   4.0436

          k = 0.6000-0.0000 0.6000 (   140 PWs)   bands (ev):

    -2.9456  -0.0786   1.9916   4.4436

          k = 0.0000 0.8000 0.0000 (   141 PWs)   bands (ev):

    -3.0269   0.0578   3.5493   3.5493

          k = 0.9000-0.1000 0.9000 (   142 PWs)   bands (ev):

    -2.2962  -0.7893   2.9693   3.5038

          k = 0.8000 0.0000 0.8000 (   134 PWs)   bands (ev):

    -1.8181  -1.2084   2.1915   3.6781

          k = 0.0000-1.0000 0.0000 (   150 PWs)   bands (ev):

    -1.5921  -1.5914   3.3880   3.3880

          k =-0.2000 0.4000 0.0000 (   147 PWs)   bands (ev):

    -4.8833   2.8745   4.1843   5.2974

          k =-0.3000 0.5000-0.1000 (   143 PWs)   bands (ev):

    -4.2702   1.4592   3.5922   4.9191

          k = 0.6000-0.4000 0.8000 (   143 PWs)   bands (ev):

    -3.5219   0.0916   3.3585   4.5643

          k = 0.5000-0.3000 0.7000 (   144 PWs)   bands (ev):

    -3.0620  -0.5885   3.2999   4.4230

          k =-0.2000 0.6000 0.0000 (   146 PWs)   bands (ev):

    -4.0429   1.4670   3.4485   4.1748

          k = 0.7000-0.3000 0.9000 (   145 PWs)   bands (ev):

    -3.3210   0.3610   2.8297   3.8434

          k = 0.6000-0.2000 0.8000 (   146 PWs)   bands (ev):

    -2.6697  -0.5032   2.4218   3.7883

          k = 0.5000-0.1000 0.7000 (   143 PWs)   bands (ev):

    -2.8708  -0.2423   2.2697   4.0302

          k = 0.4000 0.0000 0.6000 (   143 PWs)   bands (ev):

    -3.6085   0.7091   2.5722   4.4748

          k = 0.8000-0.2000 1.0000 (   143 PWs)   bands (ev):

    -2.9084  -0.0302   3.0331   3.3610

          k = 0.7000-0.1000 0.9000 (   142 PWs)   bands (ev):

    -2.1677  -0.8084   2.3340   3.2690

          k = 0.6000 0.0000 0.8000 (   144 PWs)   bands (ev):

    -2.1739  -0.7811   1.9174   3.5447

          k =-0.2000-1.0000 0.0000 (   144 PWs)   bands (ev):

    -1.5378  -1.5371   2.9878   2.9878

          k = 0.6000-0.2000 1.0000 (   142 PWs)   bands (ev):

    -2.5863  -0.3292   2.2757   3.2672

          k = 0.5000-0.1000 0.9000 (   146 PWs)   bands (ev):

    -2.0742  -0.8408   2.1167   3.0125

          k =-0.4000-1.0000 0.0000 (   144 PWs)   bands (ev):

    -1.4436  -1.4429   2.4783   2.4783

     highest occupied level (ev):     6.3020

!    total energy              =     -93.44769237 Ry
     Harris-Foulkes estimate   =     -93.44769244 Ry
     estimated scf accuracy    <       0.00000009 Ry

     total all-electron energy =     -1160.139428 Ry

     The total energy is the sum of the following terms:

     one-electron contribution =       5.73561893 Ry
     hartree contribution      =       1.09863815 Ry
     xc contribution           =     -12.26317277 Ry
     ewald contribution        =     -16.80092958 Ry
     one-center paw contrib.   =     -71.21784710 Ry

     convergence has been achieved in   5 iterations

     Forces acting on atoms (Ry/au):

     atom    1 type  1   force =     0.00000000    0.00000000   -0.00000000
     atom    2 type  1   force =    -0.00000000   -0.00000000    0.00000000

     Total force =     0.000000     Total SCF correction =     0.000000


     entering subroutine stress ...

          total   stress  (Ry/bohr**3)                   (kbar)     P=   65.47
   0.00044503  -0.00000000   0.00000000         65.47     -0.00      0.00
  -0.00000000   0.00044503  -0.00000000         -0.00     65.47     -0.00
   0.00000000  -0.00000000   0.00044503          0.00     -0.00     65.47


     Writing output data file pwscf.save
 
     init_run     :      0.46s CPU      0.47s WALL (       1 calls)
     electrons    :      1.48s CPU      1.53s WALL (       1 calls)
     forces       :      0.01s CPU      0.02s WALL (       1 calls)
     stress       :      0.06s CPU      0.06s WALL (       1 calls)

     Called by init_run:
     wfcinit      :      0.06s CPU      0.07s WALL (       1 calls)
     potinit      :      0.16s CPU      0.16s WALL (       1 calls)

     Called by electrons:
     c_bands      :      0.56s CPU      0.60s WALL (       6 calls)
     sum_band     :      0.10s CPU      0.11s WALL (       6 calls)
     v_of_rho     :      0.02s CPU      0.02s WALL (       6 calls)
     newd         :      0.01s CPU      0.01s WALL (       6 calls)
     mix_rho      :      0.00s CPU      0.00s WALL (       6 calls)

     Called by c_bands:
     init_us_2    :      0.04s CPU      0.04s WALL (     705 calls)
     cegterg      :      0.49s CPU      0.52s WALL (     282 calls)

     Called by *egterg:
     h_psi        :      0.44s CPU      0.46s WALL (     817 calls)
     s_psi        :      0.01s CPU      0.02s WALL (     817 calls)
     g_psi        :      0.01s CPU      0.01s WALL (     488 calls)
     cdiaghg      :      0.04s CPU      0.05s WALL (     723 calls)

     Called by h_psi:
     add_vuspsi   :      0.01s CPU      0.02s WALL (     817 calls)

     General routines
     calbec       :      0.03s CPU      0.03s WALL (    1193 calls)
     fft          :      0.01s CPU      0.01s WALL (     105 calls)
     fftw         :      0.41s CPU      0.43s WALL (    7674 calls)
     davcio       :      0.00s CPU      0.00s WALL (      47 calls)
 
     Parallel routines
     fft_scatter  :      0.03s CPU      0.04s WALL (    7779 calls)

     PAW routines
     PAW_pot      :      0.95s CPU      0.95s WALL (       6 calls)
     PAW_symme    :      0.00s CPU      0.00s WALL (      12 calls)
 
     PWSCF        :     2.48s CPU         3.44s WALL

 
   This run was terminated on:  20:24: 0  28Apr2015            

=------------------------------------------------------------------------------=
   JOB DONE.
=------------------------------------------------------------------------------=
