
     Program PWSCF v.5.1 starts on 28Apr2015 at 20:15:33 

     This program is part of the open-source Quantum ESPRESSO suite
     for quantum simulation of materials; please cite
         "P. Giannozzi et al., J. Phys.:Condens. Matter 21 395502 (2009);
          URL http://www.quantum-espresso.org", 
     in publications or presentations arising from this work. More details at
     http://www.quantum-espresso.org/quote

     Parallel version (MPI), running on     1 processors
     Waiting for input...
     Reading input from standard input
Warning: card &IONS ignored
Warning: card / ignored
Warning: card &CELL ignored
Warning: card / ignored

     Current dimensions of program PWSCF are:
     Max number of different atomic species (ntypx) = 10
     Max number of k-points (npk) =  40000
     Max angular momentum in pseudopotentials (lmaxx) =  3
               file Si.pbe-n-kjpaw_psl.0.1.UPF: wavefunction(s)  3S renormalized

     Subspace diagonalization in iterative solution of the eigenvalue problem:
     a serial algorithm will be used

 
     G-vector sticks info
     --------------------
     sticks:   dense  smooth     PW     G-vecs:    dense   smooth      PW
     Sum         151     151     55                 1139     1139     283
 


     bravais-lattice index     =            2
     lattice parameter (alat)  =      10.2600  a.u.
     unit-cell volume          =     270.0114 (a.u.)^3
     number of atoms/cell      =            2
     number of atomic types    =            1
     number of electrons       =         8.00
     number of Kohn-Sham states=            4
     kinetic-energy cutoff     =      10.0000  Ry
     charge density cutoff     =      40.0000  Ry
     convergence threshold     =      1.0E-06
     mixing beta               =       0.7000
     number of iterations used =            8  plain     mixing
     Exchange-correlation      =  SLA  PW   PBX  PBC ( 1  4  3  4 0)

     celldm(1)=  10.260000  celldm(2)=   0.000000  celldm(3)=   0.000000
     celldm(4)=   0.000000  celldm(5)=   0.000000  celldm(6)=   0.000000

     crystal axes: (cart. coord. in units of alat)
               a(1) = (  -0.500000   0.000000   0.500000 )  
               a(2) = (   0.000000   0.500000   0.500000 )  
               a(3) = (  -0.500000   0.500000   0.000000 )  

     reciprocal axes: (cart. coord. in units 2 pi/alat)
               b(1) = ( -1.000000 -1.000000  1.000000 )  
               b(2) = (  1.000000  1.000000  1.000000 )  
               b(3) = ( -1.000000  1.000000 -1.000000 )  


     PseudoPot. # 1 for Si read from file:
     ./Si.pbe-n-kjpaw_psl.0.1.UPF
     MD5 check sum: b9d333a40e496bef61db012f150758bf
     Pseudo is Projector augmented-wave + core cor, Zval =  4.0
     Generated using "atomic" code by A. Dal Corso  v.5.0.2 svn rev. 9415
     Shape of augmentation charge: PSQ
     Using radial grid of 1141 points,  4 beta functions with: 
                l(1) =   0
                l(2) =   0
                l(3) =   1
                l(4) =   1
     Q(r) pseudized with 0 coefficients 


     atomic species   valence    mass     pseudopotential
        Si             4.00    28.05500     Si( 1.00)

     24 Sym. Ops. (no inversion) found
          (note: 24 additional sym.ops. were found but ignored
           their fractional translations are incommensurate with FFT grid)


   Cartesian axes

     site n.     atom                  positions (alat units)
         1           Si  tau(   1) = (   0.0000000   0.0000000   0.0000000  )
         2           Si  tau(   2) = (  -0.2500000   0.2500000   0.2500000  )

     number of k points=    16
                       cart. coord. in units 2pi/alat
        k(    1) = (   0.0000000   0.0000000   0.0000000), wk =   0.0092593
        k(    2) = (  -0.1666667   0.1666667  -0.1666667), wk =   0.0740741
        k(    3) = (  -0.3333333   0.3333333  -0.3333333), wk =   0.0740741
        k(    4) = (   0.5000000  -0.5000000   0.5000000), wk =   0.0370370
        k(    5) = (   0.0000000   0.3333333   0.0000000), wk =   0.0555556
        k(    6) = (  -0.1666667   0.5000000  -0.1666667), wk =   0.2222222
        k(    7) = (   0.6666667  -0.3333333   0.6666667), wk =   0.2222222
        k(    8) = (   0.5000000  -0.1666667   0.5000000), wk =   0.2222222
        k(    9) = (   0.3333333   0.0000000   0.3333333), wk =   0.1111111
        k(   10) = (   0.0000000   0.6666667   0.0000000), wk =   0.0555556
        k(   11) = (   0.8333333  -0.1666667   0.8333333), wk =   0.2222222
        k(   12) = (   0.6666667  -0.0000000   0.6666667), wk =   0.1111111
        k(   13) = (   0.0000000  -1.0000000   0.0000000), wk =   0.0277778
        k(   14) = (   0.6666667  -0.3333333   1.0000000), wk =   0.2222222
        k(   15) = (   0.5000000  -0.1666667   0.8333333), wk =   0.2222222
        k(   16) = (  -0.3333333  -1.0000000   0.0000000), wk =   0.1111111

     Dense  grid:     1139 G-vectors     FFT dimensions: (  15,  15,  15)

     Largest allocated arrays     est. size (Mb)     dimensions
        Kohn-Sham Wavefunctions         0.01 Mb     (     150,    4)
        NL pseudopotentials             0.04 Mb     (     150,   16)
        Each V/rho on FFT grid          0.05 Mb     (    3375)
        Each G-vector array             0.01 Mb     (    1139)
        G-vector shells                 0.00 Mb     (      37)
     Largest temporary arrays     est. size (Mb)     dimensions
        Auxiliary wavefunctions         0.04 Mb     (     150,   16)
        Each subspace H/S matrix        0.00 Mb     (      16,   16)
        Each <psi_i|beta_j> matrix      0.00 Mb     (      16,    4)
        Arrays for rho mixing           0.41 Mb     (    3375,    8)

     Check: negative/imaginary core charge=   -0.000249    0.000000

     Initial potential from superposition of free atoms

     starting charge    7.99888, renormalised to    8.00000
     Starting wfc are    8 randomized atomic wfcs
     Checking if some PAW data can be deallocated... 

     total cpu time spent up to now is        0.7 secs

     per-process dynamical memory:     5.8 Mb

     Self-consistent Calculation

     iteration #  1     ecut=    10.00 Ry     beta=0.70
     Davidson diagonalization with overlap
     ethr =  1.00E-02,  avg # of iterations =  2.0

     Threshold (ethr) on eigenvalues was too large:
     Diagonalizing with lowered threshold

     Davidson diagonalization with overlap
     ethr =  7.00E-04,  avg # of iterations =  1.1

     total cpu time spent up to now is        1.0 secs

     total energy              =     -93.44381632 Ry
     Harris-Foulkes estimate   =     -93.45649688 Ry
     estimated scf accuracy    <       0.05630932 Ry

     iteration #  2     ecut=    10.00 Ry     beta=0.70
     Davidson diagonalization with overlap
     ethr =  7.04E-04,  avg # of iterations =  1.0

     total cpu time spent up to now is        1.2 secs

     total energy              =     -93.44543806 Ry
     Harris-Foulkes estimate   =     -93.44569140 Ry
     estimated scf accuracy    <       0.00246122 Ry

     iteration #  3     ecut=    10.00 Ry     beta=0.70
     Davidson diagonalization with overlap
     ethr =  3.08E-05,  avg # of iterations =  1.8

     total cpu time spent up to now is        1.4 secs

     total energy              =     -93.44569528 Ry
     Harris-Foulkes estimate   =     -93.44571619 Ry
     estimated scf accuracy    <       0.00004883 Ry

     iteration #  4     ecut=    10.00 Ry     beta=0.70
     Davidson diagonalization with overlap
     ethr =  6.10E-07,  avg # of iterations =  2.5

     total cpu time spent up to now is        1.6 secs

     total energy              =     -93.44571546 Ry
     Harris-Foulkes estimate   =     -93.44571693 Ry
     estimated scf accuracy    <       0.00000349 Ry

     iteration #  5     ecut=    10.00 Ry     beta=0.70
     Davidson diagonalization with overlap
     ethr =  4.36E-08,  avg # of iterations =  2.1

     total cpu time spent up to now is        1.8 secs

     End of self-consistent calculation

          k = 0.0000 0.0000 0.0000 (   137 PWs)   bands (ev):

    -5.7403   6.3089   6.3089   6.3089

          k =-0.1667 0.1667-0.1667 (   150 PWs)   bands (ev):

    -5.3785   3.8844   5.8318   5.8318

          k =-0.3333 0.3333-0.3333 (   144 PWs)   bands (ev):

    -4.3605   0.9156   5.2721   5.2721

          k = 0.5000-0.5000 0.5000 (   138 PWs)   bands (ev):

    -3.4034  -0.7255   5.0679   5.0679

          k = 0.0000 0.3333 0.0000 (   149 PWs)   bands (ev):

    -5.2553   4.2246   5.0814   5.0814

          k =-0.1667 0.5000-0.1667 (   143 PWs)   bands (ev):

    -4.4378   1.8140   4.2783   4.5238

          k = 0.6667-0.3333 0.6667 (   146 PWs)   bands (ev):

    -3.2443  -0.3632   3.4875   4.4853

          k = 0.5000-0.1667 0.5000 (   145 PWs)   bands (ev):

    -3.6297   0.2378   3.2172   4.9711

          k = 0.3333 0.0000 0.3333 (   143 PWs)   bands (ev):

    -4.7887   2.5365   3.8573   5.7124

          k = 0.0000 0.6667 0.0000 (   141 PWs)   bands (ev):

    -3.8313   1.2353   3.8402   3.8402

          k = 0.8333-0.1667 0.8333 (   139 PWs)   bands (ev):

    -2.6644  -0.3268   2.6290   3.7035

          k = 0.6667-0.0000 0.6667 (   142 PWs)   bands (ev):

    -2.4680  -0.5317   1.8477   4.1508

          k = 0.0000-1.0000 0.0000 (   150 PWs)   bands (ev):

    -1.5860  -1.5853   3.3935   3.3935

          k = 0.6667-0.3333 1.0000 (   143 PWs)   bands (ev):

    -3.4453   0.5976   2.6919   3.9738

          k = 0.5000-0.1667 0.8333 (   142 PWs)   bands (ev):

    -2.4577  -0.6039   2.2515   3.5041

          k =-0.3333-1.0000 0.0000 (   140 PWs)   bands (ev):

    -1.4640  -1.4633   2.6140   2.6140

     highest occupied level (ev):     6.3089

!    total energy              =     -93.44571613 Ry
     Harris-Foulkes estimate   =     -93.44571619 Ry
     estimated scf accuracy    <       0.00000009 Ry

     total all-electron energy =     -1160.137452 Ry

     The total energy is the sum of the following terms:

     one-electron contribution =       5.73536324 Ry
     hartree contribution      =       1.10258058 Ry
     xc contribution           =     -12.26511940 Ry
     ewald contribution        =     -16.80092958 Ry
     one-center paw contrib.   =     -71.21761097 Ry

     convergence has been achieved in   5 iterations

     Forces acting on atoms (Ry/au):

     atom    1 type  1   force =     0.00000000    0.00000000    0.00000000
     atom    2 type  1   force =     0.00000000    0.00000000    0.00000000

     Total force =     0.000000     Total SCF correction =     0.000000


     entering subroutine stress ...

          total   stress  (Ry/bohr**3)                   (kbar)     P=   66.08
   0.00044923  -0.00000000   0.00000000         66.08     -0.00      0.00
  -0.00000000   0.00044923   0.00000000         -0.00     66.08      0.00
   0.00000000   0.00000000   0.00044923          0.00      0.00     66.08


     Writing output data file pwscf.save
 
     init_run     :      0.42s CPU      0.43s WALL (       1 calls)
     electrons    :      1.05s CPU      1.07s WALL (       1 calls)
     forces       :      0.01s CPU      0.01s WALL (       1 calls)
     stress       :      0.03s CPU      0.03s WALL (       1 calls)

     Called by init_run:
     wfcinit      :      0.02s CPU      0.02s WALL (       1 calls)
     potinit      :      0.16s CPU      0.16s WALL (       1 calls)

     Called by electrons:
     c_bands      :      0.19s CPU      0.20s WALL (       6 calls)
     sum_band     :      0.05s CPU      0.05s WALL (       6 calls)
     v_of_rho     :      0.02s CPU      0.02s WALL (       6 calls)
     newd         :      0.01s CPU      0.01s WALL (       6 calls)
     mix_rho      :      0.00s CPU      0.00s WALL (       6 calls)

     Called by c_bands:
     init_us_2    :      0.01s CPU      0.01s WALL (     240 calls)
     cegterg      :      0.16s CPU      0.18s WALL (      96 calls)

     Called by *egterg:
     h_psi        :      0.14s CPU      0.16s WALL (     279 calls)
     s_psi        :      0.01s CPU      0.01s WALL (     279 calls)
     g_psi        :      0.00s CPU      0.00s WALL (     167 calls)
     cdiaghg      :      0.02s CPU      0.02s WALL (     247 calls)

     Called by h_psi:
     add_vuspsi   :      0.00s CPU      0.01s WALL (     279 calls)

     General routines
     calbec       :      0.01s CPU      0.01s WALL (     407 calls)
     fft          :      0.01s CPU      0.01s WALL (     105 calls)
     fftw         :      0.14s CPU      0.15s WALL (    2610 calls)
     davcio       :      0.00s CPU      0.00s WALL (      16 calls)
 
     Parallel routines
     fft_scatter  :      0.01s CPU      0.01s WALL (    2715 calls)

     PAW routines
     PAW_pot      :      0.94s CPU      0.95s WALL (       6 calls)
     PAW_symme    :      0.00s CPU      0.00s WALL (      12 calls)
 
     PWSCF        :     1.90s CPU         2.10s WALL

 
   This run was terminated on:  20:15:35  28Apr2015            

=------------------------------------------------------------------------------=
   JOB DONE.
=------------------------------------------------------------------------------=
