
     Program PWSCF v.5.1 starts on 28Apr2015 at 20:15:35 

     This program is part of the open-source Quantum ESPRESSO suite
     for quantum simulation of materials; please cite
         "P. Giannozzi et al., J. Phys.:Condens. Matter 21 395502 (2009);
          URL http://www.quantum-espresso.org", 
     in publications or presentations arising from this work. More details at
     http://www.quantum-espresso.org/quote

     Parallel version (MPI), running on     1 processors
     Waiting for input...
     Reading input from standard input
Warning: card &IONS ignored
Warning: card / ignored
Warning: card &CELL ignored
Warning: card / ignored

     Current dimensions of program PWSCF are:
     Max number of different atomic species (ntypx) = 10
     Max number of k-points (npk) =  40000
     Max angular momentum in pseudopotentials (lmaxx) =  3
               file Si.pbe-n-kjpaw_psl.0.1.UPF: wavefunction(s)  3S renormalized

     Subspace diagonalization in iterative solution of the eigenvalue problem:
     a serial algorithm will be used

 
     G-vector sticks info
     --------------------
     sticks:   dense  smooth     PW     G-vecs:    dense   smooth      PW
     Sum         295     295     97                 3287     3287     645
 


     bravais-lattice index     =            2
     lattice parameter (alat)  =      10.2600  a.u.
     unit-cell volume          =     270.0114 (a.u.)^3
     number of atoms/cell      =            2
     number of atomic types    =            1
     number of electrons       =         8.00
     number of Kohn-Sham states=            4
     kinetic-energy cutoff     =      20.0000  Ry
     charge density cutoff     =      80.0000  Ry
     convergence threshold     =      1.0E-06
     mixing beta               =       0.7000
     number of iterations used =            8  plain     mixing
     Exchange-correlation      =  SLA  PW   PBX  PBC ( 1  4  3  4 0)

     celldm(1)=  10.260000  celldm(2)=   0.000000  celldm(3)=   0.000000
     celldm(4)=   0.000000  celldm(5)=   0.000000  celldm(6)=   0.000000

     crystal axes: (cart. coord. in units of alat)
               a(1) = (  -0.500000   0.000000   0.500000 )  
               a(2) = (   0.000000   0.500000   0.500000 )  
               a(3) = (  -0.500000   0.500000   0.000000 )  

     reciprocal axes: (cart. coord. in units 2 pi/alat)
               b(1) = ( -1.000000 -1.000000  1.000000 )  
               b(2) = (  1.000000  1.000000  1.000000 )  
               b(3) = ( -1.000000  1.000000 -1.000000 )  


     PseudoPot. # 1 for Si read from file:
     ./Si.pbe-n-kjpaw_psl.0.1.UPF
     MD5 check sum: b9d333a40e496bef61db012f150758bf
     Pseudo is Projector augmented-wave + core cor, Zval =  4.0
     Generated using "atomic" code by A. Dal Corso  v.5.0.2 svn rev. 9415
     Shape of augmentation charge: PSQ
     Using radial grid of 1141 points,  4 beta functions with: 
                l(1) =   0
                l(2) =   0
                l(3) =   1
                l(4) =   1
     Q(r) pseudized with 0 coefficients 


     atomic species   valence    mass     pseudopotential
        Si             4.00    28.05500     Si( 1.00)

     48 Sym. Ops., with inversion, found (24 have fractional translation)



   Cartesian axes

     site n.     atom                  positions (alat units)
         1           Si  tau(   1) = (   0.0000000   0.0000000   0.0000000  )
         2           Si  tau(   2) = (  -0.2500000   0.2500000   0.2500000  )

     number of k points=    16
                       cart. coord. in units 2pi/alat
        k(    1) = (   0.0000000   0.0000000   0.0000000), wk =   0.0092593
        k(    2) = (  -0.1666667   0.1666667  -0.1666667), wk =   0.0740741
        k(    3) = (  -0.3333333   0.3333333  -0.3333333), wk =   0.0740741
        k(    4) = (   0.5000000  -0.5000000   0.5000000), wk =   0.0370370
        k(    5) = (   0.0000000   0.3333333   0.0000000), wk =   0.0555556
        k(    6) = (  -0.1666667   0.5000000  -0.1666667), wk =   0.2222222
        k(    7) = (   0.6666667  -0.3333333   0.6666667), wk =   0.2222222
        k(    8) = (   0.5000000  -0.1666667   0.5000000), wk =   0.2222222
        k(    9) = (   0.3333333   0.0000000   0.3333333), wk =   0.1111111
        k(   10) = (   0.0000000   0.6666667   0.0000000), wk =   0.0555556
        k(   11) = (   0.8333333  -0.1666667   0.8333333), wk =   0.2222222
        k(   12) = (   0.6666667  -0.0000000   0.6666667), wk =   0.1111111
        k(   13) = (   0.0000000  -1.0000000   0.0000000), wk =   0.0277778
        k(   14) = (   0.6666667  -0.3333333   1.0000000), wk =   0.2222222
        k(   15) = (   0.5000000  -0.1666667   0.8333333), wk =   0.2222222
        k(   16) = (  -0.3333333  -1.0000000   0.0000000), wk =   0.1111111

     Dense  grid:     3287 G-vectors     FFT dimensions: (  24,  24,  24)

     Largest allocated arrays     est. size (Mb)     dimensions
        Kohn-Sham Wavefunctions         0.03 Mb     (     419,    4)
        NL pseudopotentials             0.10 Mb     (     419,   16)
        Each V/rho on FFT grid          0.21 Mb     (   13824)
        Each G-vector array             0.03 Mb     (    3287)
        G-vector shells                 0.00 Mb     (      74)
     Largest temporary arrays     est. size (Mb)     dimensions
        Auxiliary wavefunctions         0.10 Mb     (     419,   16)
        Each subspace H/S matrix        0.00 Mb     (      16,   16)
        Each <psi_i|beta_j> matrix      0.00 Mb     (      16,    4)
        Arrays for rho mixing           1.69 Mb     (   13824,    8)

     Check: negative/imaginary core charge=   -0.000010    0.000000

     Initial potential from superposition of free atoms

     starting charge    7.99888, renormalised to    8.00000
     Starting wfc are    8 randomized atomic wfcs
     Checking if some PAW data can be deallocated... 

     total cpu time spent up to now is        0.9 secs

     per-process dynamical memory:     7.1 Mb

     Self-consistent Calculation

     iteration #  1     ecut=    20.00 Ry     beta=0.70
     Davidson diagonalization with overlap
     ethr =  1.00E-02,  avg # of iterations =  2.0

     Threshold (ethr) on eigenvalues was too large:
     Diagonalizing with lowered threshold

     Davidson diagonalization with overlap
     ethr =  7.23E-04,  avg # of iterations =  1.1

     total cpu time spent up to now is        1.5 secs

     total energy              =     -93.44838857 Ry
     Harris-Foulkes estimate   =     -93.46224561 Ry
     estimated scf accuracy    <       0.05765046 Ry

     iteration #  2     ecut=    20.00 Ry     beta=0.70
     Davidson diagonalization with overlap
     ethr =  7.21E-04,  avg # of iterations =  1.0

     total cpu time spent up to now is        1.8 secs

     total energy              =     -93.45049316 Ry
     Harris-Foulkes estimate   =     -93.45062511 Ry
     estimated scf accuracy    <       0.00248018 Ry

     iteration #  3     ecut=    20.00 Ry     beta=0.70
     Davidson diagonalization with overlap
     ethr =  3.10E-05,  avg # of iterations =  1.8

     total cpu time spent up to now is        2.1 secs

     total energy              =     -93.45075791 Ry
     Harris-Foulkes estimate   =     -93.45077232 Ry
     estimated scf accuracy    <       0.00005052 Ry

     iteration #  4     ecut=    20.00 Ry     beta=0.70
     Davidson diagonalization with overlap
     ethr =  6.32E-07,  avg # of iterations =  2.9

     total cpu time spent up to now is        2.6 secs

     total energy              =     -93.45078493 Ry
     Harris-Foulkes estimate   =     -93.45078530 Ry
     estimated scf accuracy    <       0.00000123 Ry

     iteration #  5     ecut=    20.00 Ry     beta=0.70
     Davidson diagonalization with overlap
     ethr =  1.54E-08,  avg # of iterations =  2.8

     total cpu time spent up to now is        3.0 secs

     End of self-consistent calculation

          k = 0.0000 0.0000 0.0000 (   411 PWs)   bands (ev):

    -5.7476   6.2367   6.2367   6.2367

          k =-0.1667 0.1667-0.1667 (   396 PWs)   bands (ev):

    -5.3858   3.8463   5.7832   5.7832

          k =-0.3333 0.3333-0.3333 (   401 PWs)   bands (ev):

    -4.3684   0.8870   5.2286   5.2286

          k = 0.5000-0.5000 0.5000 (   410 PWs)   bands (ev):

    -3.4114  -0.7517   5.0282   5.0282

          k = 0.0000 0.3333 0.0000 (   399 PWs)   bands (ev):

    -5.2627   4.1924   5.0363   5.0363

          k =-0.1667 0.5000-0.1667 (   405 PWs)   bands (ev):

    -4.4460   1.7877   4.2342   4.4799

          k = 0.6667-0.3333 0.6667 (   409 PWs)   bands (ev):

    -3.2521  -0.3861   3.4476   4.4493

          k = 0.5000-0.1667 0.5000 (   410 PWs)   bands (ev):

    -3.6380   0.2143   3.1762   4.9301

          k = 0.3333 0.0000 0.3333 (   397 PWs)   bands (ev):

    -4.7965   2.5083   3.8124   5.6671

          k = 0.0000 0.6667 0.0000 (   419 PWs)   bands (ev):

    -3.8403   1.2141   3.8056   3.8056

          k = 0.8333-0.1667 0.8333 (   411 PWs)   bands (ev):

    -2.6743  -0.3432   2.5894   3.6686

          k = 0.6667-0.0000 0.6667 (   403 PWs)   bands (ev):

    -2.4774  -0.5490   1.8072   4.1127

          k = 0.0000-1.0000 0.0000 (   412 PWs)   bands (ev):

    -1.5967  -1.5967   3.3695   3.3695

          k = 0.6667-0.3333 1.0000 (   407 PWs)   bands (ev):

    -3.4543   0.5792   2.6523   3.9297

          k = 0.5000-0.1667 0.8333 (   406 PWs)   bands (ev):

    -2.4674  -0.6226   2.2117   3.4619

          k =-0.3333-1.0000 0.0000 (   406 PWs)   bands (ev):

    -1.4762  -1.4762   2.5765   2.5765

     highest occupied level (ev):     6.2367

!    total energy              =     -93.45078549 Ry
     Harris-Foulkes estimate   =     -93.45078553 Ry
     estimated scf accuracy    <       0.00000006 Ry

     total all-electron energy =     -1160.142522 Ry

     The total energy is the sum of the following terms:

     one-electron contribution =       5.74230891 Ry
     hartree contribution      =       1.10078694 Ry
     xc contribution           =     -12.25755393 Ry
     ewald contribution        =     -16.80092959 Ry
     one-center paw contrib.   =     -71.23539781 Ry

     convergence has been achieved in   5 iterations

     Forces acting on atoms (Ry/au):

     atom    1 type  1   force =     0.00000000   -0.00000000    0.00000000
     atom    2 type  1   force =    -0.00000000    0.00000000   -0.00000000

     Total force =     0.000000     Total SCF correction =     0.000000


     entering subroutine stress ...

          total   stress  (Ry/bohr**3)                   (kbar)     P=   19.81
   0.00013466   0.00000000   0.00000000         19.81      0.00      0.00
  -0.00000000   0.00013466   0.00000000         -0.00     19.81      0.00
   0.00000000   0.00000000   0.00013466          0.00      0.00     19.81


     Writing output data file pwscf.save
 
     init_run     :      0.61s CPU      0.62s WALL (       1 calls)
     electrons    :      2.03s CPU      2.05s WALL (       1 calls)
     forces       :      0.03s CPU      0.03s WALL (       1 calls)
     stress       :      0.10s CPU      0.10s WALL (       1 calls)

     Called by init_run:
     wfcinit      :      0.11s CPU      0.11s WALL (       1 calls)
     potinit      :      0.18s CPU      0.18s WALL (       1 calls)

     Called by electrons:
     c_bands      :      0.92s CPU      0.93s WALL (       6 calls)
     sum_band     :      0.22s CPU      0.22s WALL (       6 calls)
     v_of_rho     :      0.08s CPU      0.08s WALL (       6 calls)
     newd         :      0.03s CPU      0.03s WALL (       6 calls)
     mix_rho      :      0.00s CPU      0.01s WALL (       6 calls)

     Called by c_bands:
     init_us_2    :      0.03s CPU      0.04s WALL (     240 calls)
     cegterg      :      0.86s CPU      0.87s WALL (      96 calls)

     Called by *egterg:
     h_psi        :      0.88s CPU      0.89s WALL (     297 calls)
     s_psi        :      0.02s CPU      0.01s WALL (     297 calls)
     g_psi        :      0.01s CPU      0.01s WALL (     185 calls)
     cdiaghg      :      0.02s CPU      0.02s WALL (     265 calls)

     Called by h_psi:
     add_vuspsi   :      0.01s CPU      0.02s WALL (     297 calls)

     General routines
     calbec       :      0.03s CPU      0.02s WALL (     425 calls)
     fft          :      0.06s CPU      0.05s WALL (     105 calls)
     fftw         :      0.91s CPU      0.93s WALL (    2678 calls)
     davcio       :      0.00s CPU      0.00s WALL (      16 calls)
 
     Parallel routines
     fft_scatter  :      0.04s CPU      0.05s WALL (    2783 calls)

     PAW routines
     PAW_pot      :      0.95s CPU      0.95s WALL (       6 calls)
     PAW_symme    :      0.01s CPU      0.00s WALL (      12 calls)
 
     PWSCF        :     3.17s CPU         3.26s WALL

 
   This run was terminated on:  20:15:38  28Apr2015            

=------------------------------------------------------------------------------=
   JOB DONE.
=------------------------------------------------------------------------------=
