
     Program PWSCF v.5.1 starts on 28Apr2015 at 20:24: 0 

     This program is part of the open-source Quantum ESPRESSO suite
     for quantum simulation of materials; please cite
         "P. Giannozzi et al., J. Phys.:Condens. Matter 21 395502 (2009);
          URL http://www.quantum-espresso.org", 
     in publications or presentations arising from this work. More details at
     http://www.quantum-espresso.org/quote

     Parallel version (MPI), running on     1 processors
     Waiting for input...
     Reading input from standard input
Warning: card &IONS ignored
Warning: card / ignored
Warning: card &CELL ignored
Warning: card / ignored

     Current dimensions of program PWSCF are:
     Max number of different atomic species (ntypx) = 10
     Max number of k-points (npk) =  40000
     Max angular momentum in pseudopotentials (lmaxx) =  3
               file Si.pbe-n-kjpaw_psl.0.1.UPF: wavefunction(s)  3S renormalized

     Subspace diagonalization in iterative solution of the eigenvalue problem:
     a serial algorithm will be used

 
     G-vector sticks info
     --------------------
     sticks:   dense  smooth     PW     G-vecs:    dense   smooth      PW
     Sum         295     295     97                 3287     3287     645
 


     bravais-lattice index     =            2
     lattice parameter (alat)  =      10.2600  a.u.
     unit-cell volume          =     270.0114 (a.u.)^3
     number of atoms/cell      =            2
     number of atomic types    =            1
     number of electrons       =         8.00
     number of Kohn-Sham states=            4
     kinetic-energy cutoff     =      20.0000  Ry
     charge density cutoff     =      80.0000  Ry
     convergence threshold     =      1.0E-06
     mixing beta               =       0.7000
     number of iterations used =            8  plain     mixing
     Exchange-correlation      =  SLA  PW   PBX  PBC ( 1  4  3  4 0)

     celldm(1)=  10.260000  celldm(2)=   0.000000  celldm(3)=   0.000000
     celldm(4)=   0.000000  celldm(5)=   0.000000  celldm(6)=   0.000000

     crystal axes: (cart. coord. in units of alat)
               a(1) = (  -0.500000   0.000000   0.500000 )  
               a(2) = (   0.000000   0.500000   0.500000 )  
               a(3) = (  -0.500000   0.500000   0.000000 )  

     reciprocal axes: (cart. coord. in units 2 pi/alat)
               b(1) = ( -1.000000 -1.000000  1.000000 )  
               b(2) = (  1.000000  1.000000  1.000000 )  
               b(3) = ( -1.000000  1.000000 -1.000000 )  


     PseudoPot. # 1 for Si read from file:
     ./Si.pbe-n-kjpaw_psl.0.1.UPF
     MD5 check sum: b9d333a40e496bef61db012f150758bf
     Pseudo is Projector augmented-wave + core cor, Zval =  4.0
     Generated using "atomic" code by A. Dal Corso  v.5.0.2 svn rev. 9415
     Shape of augmentation charge: PSQ
     Using radial grid of 1141 points,  4 beta functions with: 
                l(1) =   0
                l(2) =   0
                l(3) =   1
                l(4) =   1
     Q(r) pseudized with 0 coefficients 


     atomic species   valence    mass     pseudopotential
        Si             4.00    28.05500     Si( 1.00)

     48 Sym. Ops., with inversion, found (24 have fractional translation)



   Cartesian axes

     site n.     atom                  positions (alat units)
         1           Si  tau(   1) = (   0.0000000   0.0000000   0.0000000  )
         2           Si  tau(   2) = (  -0.2500000   0.2500000   0.2500000  )

     number of k points=    47
                       cart. coord. in units 2pi/alat
        k(    1) = (   0.0000000   0.0000000   0.0000000), wk =   0.0020000
        k(    2) = (  -0.1000000   0.1000000  -0.1000000), wk =   0.0160000
        k(    3) = (  -0.2000000   0.2000000  -0.2000000), wk =   0.0160000
        k(    4) = (  -0.3000000   0.3000000  -0.3000000), wk =   0.0160000
        k(    5) = (  -0.4000000   0.4000000  -0.4000000), wk =   0.0160000
        k(    6) = (   0.5000000  -0.5000000   0.5000000), wk =   0.0080000
        k(    7) = (   0.0000000   0.2000000   0.0000000), wk =   0.0120000
        k(    8) = (  -0.1000000   0.3000000  -0.1000000), wk =   0.0480000
        k(    9) = (  -0.2000000   0.4000000  -0.2000000), wk =   0.0480000
        k(   10) = (  -0.3000000   0.5000000  -0.3000000), wk =   0.0480000
        k(   11) = (   0.6000000  -0.4000000   0.6000000), wk =   0.0480000
        k(   12) = (   0.5000000  -0.3000000   0.5000000), wk =   0.0480000
        k(   13) = (   0.4000000  -0.2000000   0.4000000), wk =   0.0480000
        k(   14) = (   0.3000000  -0.1000000   0.3000000), wk =   0.0480000
        k(   15) = (   0.2000000   0.0000000   0.2000000), wk =   0.0240000
        k(   16) = (   0.0000000   0.4000000   0.0000000), wk =   0.0120000
        k(   17) = (  -0.1000000   0.5000000  -0.1000000), wk =   0.0480000
        k(   18) = (  -0.2000000   0.6000000  -0.2000000), wk =   0.0480000
        k(   19) = (   0.7000000  -0.3000000   0.7000000), wk =   0.0480000
        k(   20) = (   0.6000000  -0.2000000   0.6000000), wk =   0.0480000
        k(   21) = (   0.5000000  -0.1000000   0.5000000), wk =   0.0480000
        k(   22) = (   0.4000000   0.0000000   0.4000000), wk =   0.0240000
        k(   23) = (   0.0000000   0.6000000   0.0000000), wk =   0.0120000
        k(   24) = (  -0.1000000   0.7000000  -0.1000000), wk =   0.0480000
        k(   25) = (   0.8000000  -0.2000000   0.8000000), wk =   0.0480000
        k(   26) = (   0.7000000  -0.1000000   0.7000000), wk =   0.0480000
        k(   27) = (   0.6000000  -0.0000000   0.6000000), wk =   0.0240000
        k(   28) = (   0.0000000   0.8000000   0.0000000), wk =   0.0120000
        k(   29) = (   0.9000000  -0.1000000   0.9000000), wk =   0.0480000
        k(   30) = (   0.8000000   0.0000000   0.8000000), wk =   0.0240000
        k(   31) = (   0.0000000  -1.0000000   0.0000000), wk =   0.0060000
        k(   32) = (  -0.2000000   0.4000000   0.0000000), wk =   0.0480000
        k(   33) = (  -0.3000000   0.5000000  -0.1000000), wk =   0.0960000
        k(   34) = (   0.6000000  -0.4000000   0.8000000), wk =   0.0960000
        k(   35) = (   0.5000000  -0.3000000   0.7000000), wk =   0.0480000
        k(   36) = (  -0.2000000   0.6000000   0.0000000), wk =   0.0480000
        k(   37) = (   0.7000000  -0.3000000   0.9000000), wk =   0.0960000
        k(   38) = (   0.6000000  -0.2000000   0.8000000), wk =   0.0960000
        k(   39) = (   0.5000000  -0.1000000   0.7000000), wk =   0.0960000
        k(   40) = (   0.4000000   0.0000000   0.6000000), wk =   0.0480000
        k(   41) = (   0.8000000  -0.2000000   1.0000000), wk =   0.0480000
        k(   42) = (   0.7000000  -0.1000000   0.9000000), wk =   0.0960000
        k(   43) = (   0.6000000   0.0000000   0.8000000), wk =   0.0480000
        k(   44) = (  -0.2000000  -1.0000000   0.0000000), wk =   0.0240000
        k(   45) = (   0.6000000  -0.2000000   1.0000000), wk =   0.0480000
        k(   46) = (   0.5000000  -0.1000000   0.9000000), wk =   0.0480000
        k(   47) = (  -0.4000000  -1.0000000   0.0000000), wk =   0.0240000

     Dense  grid:     3287 G-vectors     FFT dimensions: (  24,  24,  24)

     Largest allocated arrays     est. size (Mb)     dimensions
        Kohn-Sham Wavefunctions         0.03 Mb     (     416,    4)
        NL pseudopotentials             0.10 Mb     (     416,   16)
        Each V/rho on FFT grid          0.21 Mb     (   13824)
        Each G-vector array             0.03 Mb     (    3287)
        G-vector shells                 0.00 Mb     (      74)
     Largest temporary arrays     est. size (Mb)     dimensions
        Auxiliary wavefunctions         0.10 Mb     (     416,   16)
        Each subspace H/S matrix        0.00 Mb     (      16,   16)
        Each <psi_i|beta_j> matrix      0.00 Mb     (      16,    4)
        Arrays for rho mixing           1.69 Mb     (   13824,    8)

     Check: negative/imaginary core charge=   -0.000010    0.000000

     Initial potential from superposition of free atoms

     starting charge    7.99888, renormalised to    8.00000
     Starting wfc are    8 randomized atomic wfcs
     Checking if some PAW data can be deallocated... 

     total cpu time spent up to now is        1.1 secs

     per-process dynamical memory:     7.1 Mb

     Self-consistent Calculation

     iteration #  1     ecut=    20.00 Ry     beta=0.70
     Davidson diagonalization with overlap
     ethr =  1.00E-02,  avg # of iterations =  2.0

     Threshold (ethr) on eigenvalues was too large:
     Diagonalizing with lowered threshold

     Davidson diagonalization with overlap
     ethr =  7.11E-04,  avg # of iterations =  1.0

     total cpu time spent up to now is        2.4 secs

     total energy              =     -93.45012707 Ry
     Harris-Foulkes estimate   =     -93.46371668 Ry
     estimated scf accuracy    <       0.05670450 Ry

     iteration #  2     ecut=    20.00 Ry     beta=0.70
     Davidson diagonalization with overlap
     ethr =  7.09E-04,  avg # of iterations =  1.0

     total cpu time spent up to now is        3.0 secs

     total energy              =     -93.45221140 Ry
     Harris-Foulkes estimate   =     -93.45234172 Ry
     estimated scf accuracy    <       0.00242298 Ry

     iteration #  3     ecut=    20.00 Ry     beta=0.70
     Davidson diagonalization with overlap
     ethr =  3.03E-05,  avg # of iterations =  2.1

     total cpu time spent up to now is        3.7 secs

     total energy              =     -93.45250007 Ry
     Harris-Foulkes estimate   =     -93.45251826 Ry
     estimated scf accuracy    <       0.00005269 Ry

     iteration #  4     ecut=    20.00 Ry     beta=0.70
     Davidson diagonalization with overlap
     ethr =  6.59E-07,  avg # of iterations =  2.8

     total cpu time spent up to now is        4.5 secs

     total energy              =     -93.45252368 Ry
     Harris-Foulkes estimate   =     -93.45252470 Ry
     estimated scf accuracy    <       0.00000278 Ry

     iteration #  5     ecut=    20.00 Ry     beta=0.70
     Davidson diagonalization with overlap
     ethr =  3.48E-08,  avg # of iterations =  2.6

     total cpu time spent up to now is        5.3 secs

     End of self-consistent calculation

          k = 0.0000 0.0000 0.0000 (   411 PWs)   bands (ev):

    -5.7537   6.2291   6.2291   6.2291

          k =-0.1000 0.1000-0.1000 (   405 PWs)   bands (ev):

    -5.6226   5.0793   6.0293   6.0293

          k =-0.2000 0.2000-0.2000 (   402 PWs)   bands (ev):

    -5.2355   3.2107   5.6451   5.6451

          k =-0.3000 0.3000-0.3000 (   401 PWs)   bands (ev):

    -4.6190   1.4207   5.3081   5.3081

          k =-0.4000 0.4000-0.4000 (   413 PWs)   bands (ev):

    -3.8706  -0.0581   5.0935   5.0935

          k = 0.5000-0.5000 0.5000 (   410 PWs)   bands (ev):

    -3.4181  -0.7575   5.0213   5.0213

          k = 0.0000 0.2000 0.0000 (   399 PWs)   bands (ev):

    -5.5786   5.2872   5.6496   5.6496

          k =-0.1000 0.3000-0.1000 (   406 PWs)   bands (ev):

    -5.2756   3.7692   5.2108   5.3838

          k =-0.2000 0.4000-0.2000 (   403 PWs)   bands (ev):

    -4.7311   2.0050   4.8903   4.9486

          k =-0.3000 0.5000-0.3000 (   411 PWs)   bands (ev):

    -4.0058   0.4285   4.5347   4.7417

          k = 0.6000-0.4000 0.6000 (   407 PWs)   bands (ev):

    -3.3636  -0.6107   4.2433   4.7747

          k = 0.5000-0.3000 0.5000 (   403 PWs)   bands (ev):

    -3.5313  -0.3614   4.1148   4.9752

          k = 0.4000-0.2000 0.4000 (   405 PWs)   bands (ev):

    -4.2618   0.9235   4.1748   5.3117

          k = 0.3000-0.1000 0.3000 (   396 PWs)   bands (ev):

    -4.9389   2.5764   4.4511   5.7207

          k = 0.2000 0.0000 0.2000 (   395 PWs)   bands (ev):

    -5.4056   4.1915   5.0623   6.0506

          k = 0.0000 0.4000 0.0000 (   407 PWs)   bands (ev):

    -5.0571   3.5983   4.7325   4.7325

          k =-0.1000 0.5000-0.1000 (   409 PWs)   bands (ev):

    -4.5907   2.3481   4.2242   4.3826

          k =-0.2000 0.6000-0.2000 (   413 PWs)   bands (ev):

    -3.9142   0.9077   3.5945   4.2221

          k = 0.7000-0.3000 0.7000 (   407 PWs)   bands (ev):

    -3.1816  -0.2792   3.0836   4.2665

          k = 0.6000-0.2000 0.6000 (   404 PWs)   bands (ev):

    -3.0282  -0.4881   2.7844   4.5056

          k = 0.5000-0.1000 0.5000 (   412 PWs)   bands (ev):

    -3.6835   0.5010   2.7633   4.9042

          k = 0.4000 0.0000 0.4000 (   409 PWs)   bands (ev):

    -4.4027   1.7415   3.2171   5.3772

          k = 0.0000 0.6000 0.0000 (   415 PWs)   bands (ev):

    -4.2021   1.8030   3.9882   3.9882

          k =-0.1000 0.7000-0.1000 (   416 PWs)   bands (ev):

    -3.5883   0.7954   3.3609   3.7825

          k = 0.8000-0.2000 0.8000 (   412 PWs)   bands (ev):

    -2.8366  -0.2124   2.5308   3.7892

          k = 0.7000-0.1000 0.7000 (   404 PWs)   bands (ev):

    -2.4163  -0.6894   1.9763   4.0056

          k = 0.6000-0.0000 0.6000 (   407 PWs)   bands (ev):

    -2.9558  -0.0989   1.9502   4.4033

          k = 0.0000 0.8000 0.0000 (   416 PWs)   bands (ev):

    -3.0374   0.0383   3.5217   3.5217

          k = 0.9000-0.1000 0.9000 (   415 PWs)   bands (ev):

    -2.3073  -0.8035   2.9349   3.4728

          k = 0.8000 0.0000 0.8000 (   411 PWs)   bands (ev):

    -1.8302  -1.2248   2.1508   3.6408

          k = 0.0000-1.0000 0.0000 (   412 PWs)   bands (ev):

    -1.6034  -1.6034   3.3636   3.3636

          k =-0.2000 0.4000 0.0000 (   408 PWs)   bands (ev):

    -4.8916   2.8450   4.1384   5.2518

          k =-0.3000 0.5000-0.1000 (   407 PWs)   bands (ev):

    -4.2791   1.4337   3.5488   4.8746

          k = 0.6000-0.4000 0.8000 (   409 PWs)   bands (ev):

    -3.5309   0.0681   3.3175   4.5226

          k = 0.5000-0.3000 0.7000 (   410 PWs)   bands (ev):

    -3.0707  -0.6111   3.2578   4.3841

          k =-0.2000 0.6000 0.0000 (   413 PWs)   bands (ev):

    -4.0521   1.4457   3.4096   4.1331

          k = 0.7000-0.3000 0.9000 (   406 PWs)   bands (ev):

    -3.3306   0.3421   2.7904   3.8036

          k = 0.6000-0.2000 0.8000 (   408 PWs)   bands (ev):

    -2.6791  -0.5225   2.3814   3.7479

          k = 0.5000-0.1000 0.7000 (   408 PWs)   bands (ev):

    -2.8810  -0.2626   2.2304   3.9886

          k = 0.4000 0.0000 0.6000 (   410 PWs)   bands (ev):

    -3.6179   0.6884   2.5312   4.4302

          k = 0.8000-0.2000 1.0000 (   412 PWs)   bands (ev):

    -2.9188  -0.0477   2.9974   3.3244

          k = 0.7000-0.1000 0.9000 (   411 PWs)   bands (ev):

    -2.1791  -0.8235   2.2945   3.2335

          k = 0.6000 0.0000 0.8000 (   410 PWs)   bands (ev):

    -2.1845  -0.7969   1.8779   3.5040

          k =-0.2000-1.0000 0.0000 (   414 PWs)   bands (ev):

    -1.5500  -1.5500   2.9543   2.9543

          k = 0.6000-0.2000 1.0000 (   408 PWs)   bands (ev):

    -2.5972  -0.3461   2.2359   3.2250

          k = 0.5000-0.1000 0.9000 (   404 PWs)   bands (ev):

    -2.0851  -0.8560   2.0779   2.9731

          k =-0.4000-1.0000 0.0000 (   404 PWs)   bands (ev):

    -1.4560  -1.4560   2.4406   2.4406

     highest occupied level (ev):     6.2291

!    total energy              =     -93.45252449 Ry
     Harris-Foulkes estimate   =     -93.45252456 Ry
     estimated scf accuracy    <       0.00000009 Ry

     total all-electron energy =     -1160.144261 Ry

     The total energy is the sum of the following terms:

     one-electron contribution =       5.74275266 Ry
     hartree contribution      =       1.09642809 Ry
     xc contribution           =     -12.25542002 Ry
     ewald contribution        =     -16.80092959 Ry
     one-center paw contrib.   =     -71.23535562 Ry

     convergence has been achieved in   5 iterations

     Forces acting on atoms (Ry/au):

     atom    1 type  1   force =    -0.00000000   -0.00000000    0.00000000
     atom    2 type  1   force =     0.00000000    0.00000000   -0.00000000

     Total force =     0.000000     Total SCF correction =     0.000000


     entering subroutine stress ...

          total   stress  (Ry/bohr**3)                   (kbar)     P=   19.08
   0.00012968  -0.00000000  -0.00000000         19.08     -0.00     -0.00
  -0.00000000   0.00012968   0.00000000         -0.00     19.08      0.00
  -0.00000000   0.00000000   0.00012968         -0.00      0.00     19.08


     Writing output data file pwscf.save
 
     init_run     :      0.82s CPU      0.83s WALL (       1 calls)
     electrons    :      4.12s CPU      4.17s WALL (       1 calls)
     forces       :      0.05s CPU      0.05s WALL (       1 calls)
     stress       :      0.16s CPU      0.16s WALL (       1 calls)

     Called by init_run:
     wfcinit      :      0.32s CPU      0.32s WALL (       1 calls)
     potinit      :      0.17s CPU      0.18s WALL (       1 calls)

     Called by electrons:
     c_bands      :      2.67s CPU      2.72s WALL (       6 calls)
     sum_band     :      0.55s CPU      0.55s WALL (       6 calls)
     v_of_rho     :      0.08s CPU      0.08s WALL (       6 calls)
     newd         :      0.03s CPU      0.03s WALL (       6 calls)
     mix_rho      :      0.01s CPU      0.01s WALL (       6 calls)

     Called by c_bands:
     init_us_2    :      0.10s CPU      0.10s WALL (     705 calls)
     cegterg      :      2.51s CPU      2.54s WALL (     282 calls)

     Called by *egterg:
     h_psi        :      2.56s CPU      2.60s WALL (     865 calls)
     s_psi        :      0.04s CPU      0.04s WALL (     865 calls)
     g_psi        :      0.02s CPU      0.02s WALL (     536 calls)
     cdiaghg      :      0.07s CPU      0.06s WALL (     771 calls)

     Called by h_psi:
     add_vuspsi   :      0.05s CPU      0.04s WALL (     865 calls)

     General routines
     calbec       :      0.08s CPU      0.07s WALL (    1241 calls)
     fft          :      0.05s CPU      0.05s WALL (     105 calls)
     fftw         :      2.67s CPU      2.70s WALL (    7802 calls)
     davcio       :      0.00s CPU      0.00s WALL (      47 calls)
 
     Parallel routines
     fft_scatter  :      0.16s CPU      0.15s WALL (    7907 calls)

     PAW routines
     PAW_pot      :      0.95s CPU      0.95s WALL (       6 calls)
     PAW_symme    :      0.00s CPU      0.00s WALL (      12 calls)
 
     PWSCF        :     5.64s CPU         5.80s WALL

 
   This run was terminated on:  20:24: 6  28Apr2015            

=------------------------------------------------------------------------------=
   JOB DONE.
=------------------------------------------------------------------------------=
