
     Program PWSCF v.5.1 starts on 28Apr2015 at 20:24: 6 

     This program is part of the open-source Quantum ESPRESSO suite
     for quantum simulation of materials; please cite
         "P. Giannozzi et al., J. Phys.:Condens. Matter 21 395502 (2009);
          URL http://www.quantum-espresso.org", 
     in publications or presentations arising from this work. More details at
     http://www.quantum-espresso.org/quote

     Parallel version (MPI), running on     1 processors
     Waiting for input...
     Reading input from standard input
Warning: card &IONS ignored
Warning: card / ignored
Warning: card &CELL ignored
Warning: card / ignored

     Current dimensions of program PWSCF are:
     Max number of different atomic species (ntypx) = 10
     Max number of k-points (npk) =  40000
     Max angular momentum in pseudopotentials (lmaxx) =  3
               file Si.pbe-n-kjpaw_psl.0.1.UPF: wavefunction(s)  3S renormalized

     Subspace diagonalization in iterative solution of the eigenvalue problem:
     a serial algorithm will be used

 
     G-vector sticks info
     --------------------
     sticks:   dense  smooth     PW     G-vecs:    dense   smooth      PW
     Sum         433     433    151                 5961     5961    1139
 


     bravais-lattice index     =            2
     lattice parameter (alat)  =      10.2600  a.u.
     unit-cell volume          =     270.0114 (a.u.)^3
     number of atoms/cell      =            2
     number of atomic types    =            1
     number of electrons       =         8.00
     number of Kohn-Sham states=            4
     kinetic-energy cutoff     =      30.0000  Ry
     charge density cutoff     =     120.0000  Ry
     convergence threshold     =      1.0E-06
     mixing beta               =       0.7000
     number of iterations used =            8  plain     mixing
     Exchange-correlation      =  SLA  PW   PBX  PBC ( 1  4  3  4 0)

     celldm(1)=  10.260000  celldm(2)=   0.000000  celldm(3)=   0.000000
     celldm(4)=   0.000000  celldm(5)=   0.000000  celldm(6)=   0.000000

     crystal axes: (cart. coord. in units of alat)
               a(1) = (  -0.500000   0.000000   0.500000 )  
               a(2) = (   0.000000   0.500000   0.500000 )  
               a(3) = (  -0.500000   0.500000   0.000000 )  

     reciprocal axes: (cart. coord. in units 2 pi/alat)
               b(1) = ( -1.000000 -1.000000  1.000000 )  
               b(2) = (  1.000000  1.000000  1.000000 )  
               b(3) = ( -1.000000  1.000000 -1.000000 )  


     PseudoPot. # 1 for Si read from file:
     ./Si.pbe-n-kjpaw_psl.0.1.UPF
     MD5 check sum: b9d333a40e496bef61db012f150758bf
     Pseudo is Projector augmented-wave + core cor, Zval =  4.0
     Generated using "atomic" code by A. Dal Corso  v.5.0.2 svn rev. 9415
     Shape of augmentation charge: PSQ
     Using radial grid of 1141 points,  4 beta functions with: 
                l(1) =   0
                l(2) =   0
                l(3) =   1
                l(4) =   1
     Q(r) pseudized with 0 coefficients 


     atomic species   valence    mass     pseudopotential
        Si             4.00    28.05500     Si( 1.00)

     24 Sym. Ops. (no inversion) found
          (note: 24 additional sym.ops. were found but ignored
           their fractional translations are incommensurate with FFT grid)


   Cartesian axes

     site n.     atom                  positions (alat units)
         1           Si  tau(   1) = (   0.0000000   0.0000000   0.0000000  )
         2           Si  tau(   2) = (  -0.2500000   0.2500000   0.2500000  )

     number of k points=    47
                       cart. coord. in units 2pi/alat
        k(    1) = (   0.0000000   0.0000000   0.0000000), wk =   0.0020000
        k(    2) = (  -0.1000000   0.1000000  -0.1000000), wk =   0.0160000
        k(    3) = (  -0.2000000   0.2000000  -0.2000000), wk =   0.0160000
        k(    4) = (  -0.3000000   0.3000000  -0.3000000), wk =   0.0160000
        k(    5) = (  -0.4000000   0.4000000  -0.4000000), wk =   0.0160000
        k(    6) = (   0.5000000  -0.5000000   0.5000000), wk =   0.0080000
        k(    7) = (   0.0000000   0.2000000   0.0000000), wk =   0.0120000
        k(    8) = (  -0.1000000   0.3000000  -0.1000000), wk =   0.0480000
        k(    9) = (  -0.2000000   0.4000000  -0.2000000), wk =   0.0480000
        k(   10) = (  -0.3000000   0.5000000  -0.3000000), wk =   0.0480000
        k(   11) = (   0.6000000  -0.4000000   0.6000000), wk =   0.0480000
        k(   12) = (   0.5000000  -0.3000000   0.5000000), wk =   0.0480000
        k(   13) = (   0.4000000  -0.2000000   0.4000000), wk =   0.0480000
        k(   14) = (   0.3000000  -0.1000000   0.3000000), wk =   0.0480000
        k(   15) = (   0.2000000   0.0000000   0.2000000), wk =   0.0240000
        k(   16) = (   0.0000000   0.4000000   0.0000000), wk =   0.0120000
        k(   17) = (  -0.1000000   0.5000000  -0.1000000), wk =   0.0480000
        k(   18) = (  -0.2000000   0.6000000  -0.2000000), wk =   0.0480000
        k(   19) = (   0.7000000  -0.3000000   0.7000000), wk =   0.0480000
        k(   20) = (   0.6000000  -0.2000000   0.6000000), wk =   0.0480000
        k(   21) = (   0.5000000  -0.1000000   0.5000000), wk =   0.0480000
        k(   22) = (   0.4000000   0.0000000   0.4000000), wk =   0.0240000
        k(   23) = (   0.0000000   0.6000000   0.0000000), wk =   0.0120000
        k(   24) = (  -0.1000000   0.7000000  -0.1000000), wk =   0.0480000
        k(   25) = (   0.8000000  -0.2000000   0.8000000), wk =   0.0480000
        k(   26) = (   0.7000000  -0.1000000   0.7000000), wk =   0.0480000
        k(   27) = (   0.6000000  -0.0000000   0.6000000), wk =   0.0240000
        k(   28) = (   0.0000000   0.8000000   0.0000000), wk =   0.0120000
        k(   29) = (   0.9000000  -0.1000000   0.9000000), wk =   0.0480000
        k(   30) = (   0.8000000   0.0000000   0.8000000), wk =   0.0240000
        k(   31) = (   0.0000000  -1.0000000   0.0000000), wk =   0.0060000
        k(   32) = (  -0.2000000   0.4000000   0.0000000), wk =   0.0480000
        k(   33) = (  -0.3000000   0.5000000  -0.1000000), wk =   0.0960000
        k(   34) = (   0.6000000  -0.4000000   0.8000000), wk =   0.0960000
        k(   35) = (   0.5000000  -0.3000000   0.7000000), wk =   0.0480000
        k(   36) = (  -0.2000000   0.6000000   0.0000000), wk =   0.0480000
        k(   37) = (   0.7000000  -0.3000000   0.9000000), wk =   0.0960000
        k(   38) = (   0.6000000  -0.2000000   0.8000000), wk =   0.0960000
        k(   39) = (   0.5000000  -0.1000000   0.7000000), wk =   0.0960000
        k(   40) = (   0.4000000   0.0000000   0.6000000), wk =   0.0480000
        k(   41) = (   0.8000000  -0.2000000   1.0000000), wk =   0.0480000
        k(   42) = (   0.7000000  -0.1000000   0.9000000), wk =   0.0960000
        k(   43) = (   0.6000000   0.0000000   0.8000000), wk =   0.0480000
        k(   44) = (  -0.2000000  -1.0000000   0.0000000), wk =   0.0240000
        k(   45) = (   0.6000000  -0.2000000   1.0000000), wk =   0.0480000
        k(   46) = (   0.5000000  -0.1000000   0.9000000), wk =   0.0480000
        k(   47) = (  -0.4000000  -1.0000000   0.0000000), wk =   0.0240000

     Dense  grid:     5961 G-vectors     FFT dimensions: (  25,  25,  25)

     Largest allocated arrays     est. size (Mb)     dimensions
        Kohn-Sham Wavefunctions         0.05 Mb     (     763,    4)
        NL pseudopotentials             0.19 Mb     (     763,   16)
        Each V/rho on FFT grid          0.24 Mb     (   15625)
        Each G-vector array             0.05 Mb     (    5961)
        G-vector shells                 0.00 Mb     (     108)
     Largest temporary arrays     est. size (Mb)     dimensions
        Auxiliary wavefunctions         0.19 Mb     (     763,   16)
        Each subspace H/S matrix        0.00 Mb     (      16,   16)
        Each <psi_i|beta_j> matrix      0.00 Mb     (      16,    4)
        Arrays for rho mixing           1.91 Mb     (   15625,    8)

     Check: negative/imaginary core charge=   -0.000004    0.000000

     Initial potential from superposition of free atoms

     starting charge    7.99888, renormalised to    8.00000
     Starting wfc are    8 randomized atomic wfcs
     Checking if some PAW data can be deallocated... 

     total cpu time spent up to now is        1.4 secs

     per-process dynamical memory:     8.5 Mb

     Self-consistent Calculation

     iteration #  1     ecut=    30.00 Ry     beta=0.70
     Davidson diagonalization with overlap
     ethr =  1.00E-02,  avg # of iterations =  2.0

     Threshold (ethr) on eigenvalues was too large:
     Diagonalizing with lowered threshold

     Davidson diagonalization with overlap
     ethr =  7.17E-04,  avg # of iterations =  1.0

     total cpu time spent up to now is        3.2 secs

     total energy              =     -93.45130492 Ry
     Harris-Foulkes estimate   =     -93.46509078 Ry
     estimated scf accuracy    <       0.05698919 Ry

     iteration #  2     ecut=    30.00 Ry     beta=0.70
     Davidson diagonalization with overlap
     ethr =  7.12E-04,  avg # of iterations =  1.0

     total cpu time spent up to now is        4.1 secs

     total energy              =     -93.45343499 Ry
     Harris-Foulkes estimate   =     -93.45356686 Ry
     estimated scf accuracy    <       0.00242741 Ry

     iteration #  3     ecut=    30.00 Ry     beta=0.70
     Davidson diagonalization with overlap
     ethr =  3.03E-05,  avg # of iterations =  2.1

     total cpu time spent up to now is        5.1 secs

     total energy              =     -93.45373157 Ry
     Harris-Foulkes estimate   =     -93.45375050 Ry
     estimated scf accuracy    <       0.00005414 Ry

     iteration #  4     ecut=    30.00 Ry     beta=0.70
     Davidson diagonalization with overlap
     ethr =  6.77E-07,  avg # of iterations =  2.9

     total cpu time spent up to now is        6.4 secs

     total energy              =     -93.45375744 Ry
     Harris-Foulkes estimate   =     -93.45375857 Ry
     estimated scf accuracy    <       0.00000301 Ry

     iteration #  5     ecut=    30.00 Ry     beta=0.70
     Davidson diagonalization with overlap
     ethr =  3.76E-08,  avg # of iterations =  2.7

     total cpu time spent up to now is        7.6 secs

     End of self-consistent calculation

          k = 0.0000 0.0000 0.0000 (   725 PWs)   bands (ev):

    -5.7533   6.2189   6.2189   6.2189

          k =-0.1000 0.1000-0.1000 (   737 PWs)   bands (ev):

    -5.6222   5.0722   6.0201   6.0201

          k =-0.2000 0.2000-0.2000 (   751 PWs)   bands (ev):

    -5.2352   3.2078   5.6387   5.6387

          k =-0.3000 0.3000-0.3000 (   757 PWs)   bands (ev):

    -4.6188   1.4197   5.3032   5.3032

          k =-0.4000 0.4000-0.4000 (   763 PWs)   bands (ev):

    -3.8705  -0.0582   5.0904   5.0904

          k = 0.5000-0.5000 0.5000 (   754 PWs)   bands (ev):

    -3.4181  -0.7573   5.0186   5.0186

          k = 0.0000 0.2000 0.0000 (   737 PWs)   bands (ev):

    -5.5782   5.2797   5.6416   5.6416

          k =-0.1000 0.3000-0.1000 (   752 PWs)   bands (ev):

    -5.2753   3.7656   5.2059   5.3775

          k =-0.2000 0.4000-0.2000 (   752 PWs)   bands (ev):

    -4.7308   2.0033   4.8864   4.9435

          k =-0.3000 0.5000-0.3000 (   750 PWs)   bands (ev):

    -4.0057   0.4281   4.5313   4.7388

          k = 0.6000-0.4000 0.6000 (   755 PWs)   bands (ev):

    -3.3637  -0.6107   4.2404   4.7717

          k = 0.5000-0.3000 0.5000 (   755 PWs)   bands (ev):

    -3.5313  -0.3614   4.1118   4.9718

          k = 0.4000-0.2000 0.4000 (   754 PWs)   bands (ev):

    -4.2616   0.9227   4.1716   5.3071

          k = 0.3000-0.1000 0.3000 (   757 PWs)   bands (ev):

    -4.9386   2.5740   4.4472   5.7140

          k = 0.2000 0.0000 0.2000 (   759 PWs)   bands (ev):

    -5.4053   4.1867   5.0570   6.0419

          k = 0.0000 0.4000 0.0000 (   745 PWs)   bands (ev):

    -5.0568   3.5940   4.7290   4.7290

          k =-0.1000 0.5000-0.1000 (   746 PWs)   bands (ev):

    -4.5904   2.3459   4.2212   4.3803

          k =-0.2000 0.6000-0.2000 (   752 PWs)   bands (ev):

    -3.9139   0.9068   3.5923   4.2203

          k = 0.7000-0.3000 0.7000 (   747 PWs)   bands (ev):

    -3.1816  -0.2794   3.0819   4.2643

          k = 0.6000-0.2000 0.6000 (   747 PWs)   bands (ev):

    -3.0283  -0.4882   2.7827   4.5030

          k = 0.5000-0.1000 0.5000 (   751 PWs)   bands (ev):

    -3.6833   0.5005   2.7618   4.9011

          k = 0.4000 0.0000 0.4000 (   746 PWs)   bands (ev):

    -4.4025   1.7404   3.2151   5.3723

          k = 0.0000 0.6000 0.0000 (   745 PWs)   bands (ev):

    -4.2018   1.8009   3.9867   3.9867

          k =-0.1000 0.7000-0.1000 (   752 PWs)   bands (ev):

    -3.5880   0.7943   3.3597   3.7815

          k = 0.8000-0.2000 0.8000 (   756 PWs)   bands (ev):

    -2.8366  -0.2130   2.5297   3.7882

          k = 0.7000-0.1000 0.7000 (   741 PWs)   bands (ev):

    -2.4164  -0.6897   1.9753   4.0041

          k = 0.6000-0.0000 0.6000 (   752 PWs)   bands (ev):

    -2.9558  -0.0993   1.9492   4.4011

          k = 0.0000 0.8000 0.0000 (   753 PWs)   bands (ev):

    -3.0372   0.0372   3.5211   3.5211

          k = 0.9000-0.1000 0.9000 (   745 PWs)   bands (ev):

    -2.3072  -0.8041   2.9343   3.4724

          k = 0.8000 0.0000 0.8000 (   746 PWs)   bands (ev):

    -1.8305  -1.2252   2.1500   3.6399

          k = 0.0000-1.0000 0.0000 (   740 PWs)   bands (ev):

    -1.6035  -1.6034   3.3633   3.3633

          k =-0.2000 0.4000 0.0000 (   752 PWs)   bands (ev):

    -4.8913   2.8428   4.1357   5.2465

          k =-0.3000 0.5000-0.1000 (   758 PWs)   bands (ev):

    -4.2789   1.4325   3.5466   4.8707

          k = 0.6000-0.4000 0.8000 (   752 PWs)   bands (ev):

    -3.5307   0.0678   3.3153   4.5200

          k = 0.5000-0.3000 0.7000 (   746 PWs)   bands (ev):

    -3.0708  -0.6110   3.2556   4.3818

          k =-0.2000 0.6000 0.0000 (   750 PWs)   bands (ev):

    -4.0518   1.4443   3.4081   4.1311

          k = 0.7000-0.3000 0.9000 (   750 PWs)   bands (ev):

    -3.3304   0.3414   2.7890   3.8018

          k = 0.6000-0.2000 0.8000 (   737 PWs)   bands (ev):

    -2.6791  -0.5227   2.3802   3.7461

          k = 0.5000-0.1000 0.7000 (   749 PWs)   bands (ev):

    -2.8810  -0.2630   2.2292   3.9865

          k = 0.4000 0.0000 0.6000 (   756 PWs)   bands (ev):

    -3.6177   0.6876   2.5299   4.4273

          k = 0.8000-0.2000 1.0000 (   750 PWs)   bands (ev):

    -2.9187  -0.0485   2.9966   3.3233

          k = 0.7000-0.1000 0.9000 (   743 PWs)   bands (ev):

    -2.1792  -0.8239   2.2937   3.2325

          k = 0.6000 0.0000 0.8000 (   740 PWs)   bands (ev):

    -2.1846  -0.7973   1.8772   3.5026

          k =-0.2000-1.0000 0.0000 (   746 PWs)   bands (ev):

    -1.5503  -1.5502   2.9536   2.9537

          k = 0.6000-0.2000 1.0000 (   745 PWs)   bands (ev):

    -2.5972  -0.3467   2.2350   3.2233

          k = 0.5000-0.1000 0.9000 (   740 PWs)   bands (ev):

    -2.0853  -0.8565   2.0771   2.9717

          k =-0.4000-1.0000 0.0000 (   746 PWs)   bands (ev):

    -1.4564  -1.4562   2.4395   2.4396

     highest occupied level (ev):     6.2189

!    total energy              =     -93.45375834 Ry
     Harris-Foulkes estimate   =     -93.45375841 Ry
     estimated scf accuracy    <       0.00000008 Ry

     total all-electron energy =     -1160.145494 Ry

     The total energy is the sum of the following terms:

     one-electron contribution =       5.74116629 Ry
     hartree contribution      =       1.09696109 Ry
     xc contribution           =     -12.25617456 Ry
     ewald contribution        =     -16.80092961 Ry
     one-center paw contrib.   =     -71.23478154 Ry

     convergence has been achieved in   5 iterations

     Forces acting on atoms (Ry/au):

     atom    1 type  1   force =     0.00000000    0.00000000    0.00000000
     atom    2 type  1   force =     0.00000000    0.00000000   -0.00000000

     Total force =     0.000000     Total SCF correction =     0.000000


     entering subroutine stress ...

          total   stress  (Ry/bohr**3)                   (kbar)     P=   18.65
   0.00012679   0.00000000   0.00000000         18.65      0.00      0.00
   0.00000000   0.00012679   0.00000000          0.00     18.65      0.00
   0.00000000   0.00000000   0.00012679          0.00      0.00     18.65


     Writing output data file pwscf.save
 
     init_run     :      1.09s CPU      1.10s WALL (       1 calls)
     electrons    :      6.13s CPU      6.19s WALL (       1 calls)
     forces       :      0.08s CPU      0.08s WALL (       1 calls)
     stress       :      0.28s CPU      0.28s WALL (       1 calls)

     Called by init_run:
     wfcinit      :      0.51s CPU      0.51s WALL (       1 calls)
     potinit      :      0.18s CPU      0.18s WALL (       1 calls)

     Called by electrons:
     c_bands      :      4.34s CPU      4.38s WALL (       6 calls)
     sum_band     :      0.85s CPU      0.86s WALL (       6 calls)
     v_of_rho     :      0.11s CPU      0.11s WALL (       6 calls)
     newd         :      0.05s CPU      0.05s WALL (       6 calls)
     mix_rho      :      0.01s CPU      0.01s WALL (       6 calls)

     Called by c_bands:
     init_us_2    :      0.19s CPU      0.19s WALL (     705 calls)
     cegterg      :      4.03s CPU      4.06s WALL (     282 calls)

     Called by *egterg:
     h_psi        :      4.14s CPU      4.16s WALL (     876 calls)
     s_psi        :      0.07s CPU      0.08s WALL (     876 calls)
     g_psi        :      0.03s CPU      0.04s WALL (     547 calls)
     cdiaghg      :      0.06s CPU      0.07s WALL (     782 calls)

     Called by h_psi:
     add_vuspsi   :      0.09s CPU      0.08s WALL (     876 calls)

     General routines
     calbec       :      0.12s CPU      0.12s WALL (    1252 calls)
     fft          :      0.08s CPU      0.09s WALL (     105 calls)
     fftw         :      4.36s CPU      4.37s WALL (    7834 calls)
     davcio       :      0.00s CPU      0.00s WALL (      47 calls)
 
     Parallel routines
     fft_scatter  :      0.19s CPU      0.20s WALL (    7939 calls)

     PAW routines
     PAW_pot      :      0.95s CPU      0.95s WALL (       6 calls)
     PAW_symme    :      0.00s CPU      0.00s WALL (      12 calls)
 
     PWSCF        :     8.04s CPU         8.21s WALL

 
   This run was terminated on:  20:24:15  28Apr2015            

=------------------------------------------------------------------------------=
   JOB DONE.
=------------------------------------------------------------------------------=
