
     Program PWSCF v.5.1 starts on 28Apr2015 at 20:19: 8 

     This program is part of the open-source Quantum ESPRESSO suite
     for quantum simulation of materials; please cite
         "P. Giannozzi et al., J. Phys.:Condens. Matter 21 395502 (2009);
          URL http://www.quantum-espresso.org", 
     in publications or presentations arising from this work. More details at
     http://www.quantum-espresso.org/quote

     Parallel version (MPI), running on     1 processors
     Waiting for input...
     Reading input from standard input
Warning: card &IONS ignored
Warning: card / ignored
Warning: card &CELL ignored
Warning: card / ignored

     Current dimensions of program PWSCF are:
     Max number of different atomic species (ntypx) = 10
     Max number of k-points (npk) =  40000
     Max angular momentum in pseudopotentials (lmaxx) =  3
               file Si.pbe-n-kjpaw_psl.0.1.UPF: wavefunction(s)  3S renormalized

     Subspace diagonalization in iterative solution of the eigenvalue problem:
     a serial algorithm will be used

 
     G-vector sticks info
     --------------------
     sticks:   dense  smooth     PW     G-vecs:    dense   smooth      PW
     Sum         583     583    187                 9257     9257    1639
 


     bravais-lattice index     =            2
     lattice parameter (alat)  =      10.2600  a.u.
     unit-cell volume          =     270.0114 (a.u.)^3
     number of atoms/cell      =            2
     number of atomic types    =            1
     number of electrons       =         8.00
     number of Kohn-Sham states=            4
     kinetic-energy cutoff     =      40.0000  Ry
     charge density cutoff     =     160.0000  Ry
     convergence threshold     =      1.0E-06
     mixing beta               =       0.7000
     number of iterations used =            8  plain     mixing
     Exchange-correlation      =  SLA  PW   PBX  PBC ( 1  4  3  4 0)

     celldm(1)=  10.260000  celldm(2)=   0.000000  celldm(3)=   0.000000
     celldm(4)=   0.000000  celldm(5)=   0.000000  celldm(6)=   0.000000

     crystal axes: (cart. coord. in units of alat)
               a(1) = (  -0.500000   0.000000   0.500000 )  
               a(2) = (   0.000000   0.500000   0.500000 )  
               a(3) = (  -0.500000   0.500000   0.000000 )  

     reciprocal axes: (cart. coord. in units 2 pi/alat)
               b(1) = ( -1.000000 -1.000000  1.000000 )  
               b(2) = (  1.000000  1.000000  1.000000 )  
               b(3) = ( -1.000000  1.000000 -1.000000 )  


     PseudoPot. # 1 for Si read from file:
     ./Si.pbe-n-kjpaw_psl.0.1.UPF
     MD5 check sum: b9d333a40e496bef61db012f150758bf
     Pseudo is Projector augmented-wave + core cor, Zval =  4.0
     Generated using "atomic" code by A. Dal Corso  v.5.0.2 svn rev. 9415
     Shape of augmentation charge: PSQ
     Using radial grid of 1141 points,  4 beta functions with: 
                l(1) =   0
                l(2) =   0
                l(3) =   1
                l(4) =   1
     Q(r) pseudized with 0 coefficients 


     atomic species   valence    mass     pseudopotential
        Si             4.00    28.05500     Si( 1.00)

     24 Sym. Ops. (no inversion) found
          (note: 24 additional sym.ops. were found but ignored
           their fractional translations are incommensurate with FFT grid)


   Cartesian axes

     site n.     atom                  positions (alat units)
         1           Si  tau(   1) = (   0.0000000   0.0000000   0.0000000  )
         2           Si  tau(   2) = (  -0.2500000   0.2500000   0.2500000  )

     number of k points=    29
                       cart. coord. in units 2pi/alat
        k(    1) = (   0.0000000   0.0000000   0.0000000), wk =   0.0039062
        k(    2) = (  -0.1250000   0.1250000  -0.1250000), wk =   0.0312500
        k(    3) = (  -0.2500000   0.2500000  -0.2500000), wk =   0.0312500
        k(    4) = (  -0.3750000   0.3750000  -0.3750000), wk =   0.0312500
        k(    5) = (   0.5000000  -0.5000000   0.5000000), wk =   0.0156250
        k(    6) = (   0.0000000   0.2500000   0.0000000), wk =   0.0234375
        k(    7) = (  -0.1250000   0.3750000  -0.1250000), wk =   0.0937500
        k(    8) = (  -0.2500000   0.5000000  -0.2500000), wk =   0.0937500
        k(    9) = (   0.6250000  -0.3750000   0.6250000), wk =   0.0937500
        k(   10) = (   0.5000000  -0.2500000   0.5000000), wk =   0.0937500
        k(   11) = (   0.3750000  -0.1250000   0.3750000), wk =   0.0937500
        k(   12) = (   0.2500000   0.0000000   0.2500000), wk =   0.0468750
        k(   13) = (   0.0000000   0.5000000   0.0000000), wk =   0.0234375
        k(   14) = (  -0.1250000   0.6250000  -0.1250000), wk =   0.0937500
        k(   15) = (   0.7500000  -0.2500000   0.7500000), wk =   0.0937500
        k(   16) = (   0.6250000  -0.1250000   0.6250000), wk =   0.0937500
        k(   17) = (   0.5000000   0.0000000   0.5000000), wk =   0.0468750
        k(   18) = (   0.0000000   0.7500000   0.0000000), wk =   0.0234375
        k(   19) = (   0.8750000  -0.1250000   0.8750000), wk =   0.0937500
        k(   20) = (   0.7500000   0.0000000   0.7500000), wk =   0.0468750
        k(   21) = (   0.0000000  -1.0000000   0.0000000), wk =   0.0117188
        k(   22) = (  -0.2500000   0.5000000   0.0000000), wk =   0.0937500
        k(   23) = (   0.6250000  -0.3750000   0.8750000), wk =   0.1875000
        k(   24) = (   0.5000000  -0.2500000   0.7500000), wk =   0.0937500
        k(   25) = (   0.7500000  -0.2500000   1.0000000), wk =   0.0937500
        k(   26) = (   0.6250000  -0.1250000   0.8750000), wk =   0.1875000
        k(   27) = (   0.5000000   0.0000000   0.7500000), wk =   0.0937500
        k(   28) = (  -0.2500000  -1.0000000   0.0000000), wk =   0.0468750
        k(   29) = (  -0.5000000  -1.0000000   0.0000000), wk =   0.0234375

     Dense  grid:     9257 G-vectors     FFT dimensions: (  30,  30,  30)

     Largest allocated arrays     est. size (Mb)     dimensions
        Kohn-Sham Wavefunctions         0.07 Mb     (    1174,    4)
        NL pseudopotentials             0.29 Mb     (    1174,   16)
        Each V/rho on FFT grid          0.41 Mb     (   27000)
        Each G-vector array             0.07 Mb     (    9257)
        G-vector shells                 0.00 Mb     (     144)
     Largest temporary arrays     est. size (Mb)     dimensions
        Auxiliary wavefunctions         0.29 Mb     (    1174,   16)
        Each subspace H/S matrix        0.00 Mb     (      16,   16)
        Each <psi_i|beta_j> matrix      0.00 Mb     (      16,    4)
        Arrays for rho mixing           3.30 Mb     (   27000,    8)

     Check: negative/imaginary core charge=   -0.000003    0.000000

     Initial potential from superposition of free atoms

     starting charge    7.99888, renormalised to    8.00000
     Starting wfc are    8 randomized atomic wfcs
     Checking if some PAW data can be deallocated... 

     total cpu time spent up to now is        1.4 secs

     per-process dynamical memory:    10.4 Mb

     Self-consistent Calculation

     iteration #  1     ecut=    40.00 Ry     beta=0.70
     Davidson diagonalization with overlap
     ethr =  1.00E-02,  avg # of iterations =  2.0

     Threshold (ethr) on eigenvalues was too large:
     Diagonalizing with lowered threshold

     Davidson diagonalization with overlap
     ethr =  7.20E-04,  avg # of iterations =  1.0

     total cpu time spent up to now is        3.2 secs

     total energy              =     -93.45123547 Ry
     Harris-Foulkes estimate   =     -93.46508681 Ry
     estimated scf accuracy    <       0.05718138 Ry

     iteration #  2     ecut=    40.00 Ry     beta=0.70
     Davidson diagonalization with overlap
     ethr =  7.15E-04,  avg # of iterations =  1.0

     total cpu time spent up to now is        4.1 secs

     total energy              =     -93.45337708 Ry
     Harris-Foulkes estimate   =     -93.45350858 Ry
     estimated scf accuracy    <       0.00243671 Ry

     iteration #  3     ecut=    40.00 Ry     beta=0.70
     Davidson diagonalization with overlap
     ethr =  3.05E-05,  avg # of iterations =  2.0

     total cpu time spent up to now is        5.0 secs

     total energy              =     -93.45367098 Ry
     Harris-Foulkes estimate   =     -93.45368942 Ry
     estimated scf accuracy    <       0.00005418 Ry

     iteration #  4     ecut=    40.00 Ry     beta=0.70
     Davidson diagonalization with overlap
     ethr =  6.77E-07,  avg # of iterations =  3.0

     total cpu time spent up to now is        6.2 secs

     total energy              =     -93.45369734 Ry
     Harris-Foulkes estimate   =     -93.45369838 Ry
     estimated scf accuracy    <       0.00000280 Ry

     iteration #  5     ecut=    40.00 Ry     beta=0.70
     Davidson diagonalization with overlap
     ethr =  3.50E-08,  avg # of iterations =  2.5

     total cpu time spent up to now is        7.4 secs

     End of self-consistent calculation

          k = 0.0000 0.0000 0.0000 (  1139 PWs)   bands (ev):

    -5.7526   6.2193   6.2193   6.2193

          k =-0.1250 0.1250-0.1250 (  1173 PWs)   bands (ev):

    -5.5481   4.6192   5.9300   5.9300

          k =-0.2500 0.2500-0.2500 (  1152 PWs)   bands (ev):

    -4.9516   2.2893   5.4588   5.4588

          k =-0.3750 0.3750-0.3750 (  1155 PWs)   bands (ev):

    -4.0564   0.2674   5.1313   5.1313

          k = 0.5000-0.5000 0.5000 (  1158 PWs)   bands (ev):

    -3.4173  -0.7565   5.0193   5.0193

          k = 0.0000 0.2500 0.0000 (  1163 PWs)   bands (ev):

    -5.4792   4.8846   5.4117   5.4117

          k =-0.1250 0.3750-0.1250 (  1155 PWs)   bands (ev):

    -5.0098   2.9930   4.8994   4.9757

          k =-0.2500 0.5000-0.2500 (  1151 PWs)   bands (ev):

    -4.1936   0.9307   4.3836   4.6309

          k = 0.6250-0.3750 0.6250 (  1154 PWs)   bands (ev):

    -3.3306  -0.5346   3.9374   4.6554

          k = 0.5000-0.2500 0.5000 (  1151 PWs)   bands (ev):

    -3.5757  -0.1634   3.7555   4.9523

          k = 0.3750-0.1250 0.3750 (  1151 PWs)   bands (ev):

    -4.5004   1.5906   3.9064   5.4446

          k = 0.2500 0.0000 0.2500 (  1159 PWs)   bands (ev):

    -5.2114   3.5336   4.5891   5.9262

          k = 0.0000 0.5000 0.0000 (  1174 PWs)   bands (ev):

    -4.6690   2.7006   4.3274   4.3274

          k =-0.1250 0.6250-0.1250 (  1155 PWs)   bands (ev):

    -3.9579   1.2759   3.5460   4.0088

          k = 0.7500-0.2500 0.7500 (  1150 PWs)   bands (ev):

    -3.0305  -0.1676   2.6817   4.0120

          k = 0.6250-0.1250 0.6250 (  1150 PWs)   bands (ev):

    -2.8258  -0.4265   2.2226   4.3308

          k = 0.5000 0.0000 0.5000 (  1159 PWs)   bands (ev):

    -3.7057   0.7357   2.4629   4.8901

          k = 0.0000 0.7500 0.0000 (  1150 PWs)   bands (ev):

    -3.3547   0.4710   3.6099   3.6099

          k = 0.8750-0.1250 0.8750 (  1150 PWs)   bands (ev):

    -2.4561  -0.6149   2.7799   3.5336

          k = 0.7500 0.0000 0.7500 (  1144 PWs)   bands (ev):

    -2.0165  -1.0121   1.9129   3.7916

          k = 0.0000-1.0000 0.0000 (  1162 PWs)   bands (ev):

    -1.6027  -1.6025   3.3639   3.3639

          k =-0.2500 0.5000 0.0000 (  1153 PWs)   bands (ev):

    -4.4212   1.9274   3.5036   4.7903

          k = 0.6250-0.3750 0.8750 (  1150 PWs)   bands (ev):

    -3.5315   0.3740   2.8952   4.2881

          k = 0.5000-0.2500 0.7500 (  1154 PWs)   bands (ev):

    -2.8779  -0.5724   2.7663   4.0581

          k = 0.7500-0.2500 1.0000 (  1171 PWs)   bands (ev):

    -3.1557   0.2519   2.8537   3.4572

          k = 0.6250-0.1250 0.8750 (  1155 PWs)   bands (ev):

    -2.2796  -0.7171   2.1547   3.2563

          k = 0.5000 0.0000 0.7500 (  1153 PWs)   bands (ev):

    -2.6306  -0.3536   1.9876   3.6327

          k =-0.2500-1.0000 0.0000 (  1156 PWs)   bands (ev):

    -1.5245  -1.5243   2.7990   2.7990

          k =-0.5000-1.0000 0.0000 (  1144 PWs)   bands (ev):

    -1.4384  -1.4382   2.3625   2.3626

     highest occupied level (ev):     6.2193

!    total energy              =     -93.45369814 Ry
     Harris-Foulkes estimate   =     -93.45369820 Ry
     estimated scf accuracy    <       0.00000007 Ry

     total all-electron energy =     -1160.145434 Ry

     The total energy is the sum of the following terms:

     one-electron contribution =       5.74084118 Ry
     hartree contribution      =       1.09779192 Ry
     xc contribution           =     -12.25679515 Ry
     ewald contribution        =     -16.80092960 Ry
     one-center paw contrib.   =     -71.23460649 Ry

     convergence has been achieved in   5 iterations

     Forces acting on atoms (Ry/au):

     atom    1 type  1   force =     0.00000000    0.00000000    0.00000000
     atom    2 type  1   force =     0.00000000    0.00000000    0.00000000

     Total force =     0.000000     Total SCF correction =     0.000000


     entering subroutine stress ...

          total   stress  (Ry/bohr**3)                   (kbar)     P=   19.09
   0.00012976  -0.00000000  -0.00000000         19.09     -0.00     -0.00
  -0.00000000   0.00012976   0.00000000         -0.00     19.09      0.00
  -0.00000000  -0.00000000   0.00012976         -0.00     -0.00     19.09


     Writing output data file pwscf.save
 
     init_run     :      1.13s CPU      1.14s WALL (       1 calls)
     electrons    :      5.87s CPU      5.92s WALL (       1 calls)
     forces       :      0.10s CPU      0.10s WALL (       1 calls)
     stress       :      0.34s CPU      0.34s WALL (       1 calls)

     Called by init_run:
     wfcinit      :      0.47s CPU      0.47s WALL (       1 calls)
     potinit      :      0.19s CPU      0.20s WALL (       1 calls)

     Called by electrons:
     c_bands      :      3.98s CPU      4.00s WALL (       6 calls)
     sum_band     :      0.86s CPU      0.87s WALL (       6 calls)
     v_of_rho     :      0.17s CPU      0.18s WALL (       6 calls)
     newd         :      0.08s CPU      0.09s WALL (       6 calls)
     mix_rho      :      0.01s CPU      0.01s WALL (       6 calls)

     Called by c_bands:
     init_us_2    :      0.18s CPU      0.18s WALL (     435 calls)
     cegterg      :      3.68s CPU      3.70s WALL (     174 calls)

     Called by *egterg:
     h_psi        :      3.79s CPU      3.81s WALL (     538 calls)
     s_psi        :      0.07s CPU      0.07s WALL (     538 calls)
     g_psi        :      0.03s CPU      0.03s WALL (     335 calls)
     cdiaghg      :      0.03s CPU      0.04s WALL (     480 calls)

     Called by h_psi:
     add_vuspsi   :      0.10s CPU      0.07s WALL (     538 calls)

     General routines
     calbec       :      0.09s CPU      0.11s WALL (     770 calls)
     fft          :      0.13s CPU      0.13s WALL (     105 calls)
     fftw         :      3.91s CPU      3.96s WALL (    4818 calls)
     davcio       :      0.00s CPU      0.00s WALL (      29 calls)
 
     Parallel routines
     fft_scatter  :      0.23s CPU      0.23s WALL (    4923 calls)

     PAW routines
     PAW_pot      :      0.95s CPU      0.95s WALL (       6 calls)
     PAW_symme    :      0.00s CPU      0.00s WALL (      12 calls)
 
     PWSCF        :     7.87s CPU         8.01s WALL

 
   This run was terminated on:  20:19:16  28Apr2015            

=------------------------------------------------------------------------------=
   JOB DONE.
=------------------------------------------------------------------------------=
