
     Program PWSCF v.5.1 starts on 28Apr2015 at 20:24:15 

     This program is part of the open-source Quantum ESPRESSO suite
     for quantum simulation of materials; please cite
         "P. Giannozzi et al., J. Phys.:Condens. Matter 21 395502 (2009);
          URL http://www.quantum-espresso.org", 
     in publications or presentations arising from this work. More details at
     http://www.quantum-espresso.org/quote

     Parallel version (MPI), running on     1 processors
     Waiting for input...
     Reading input from standard input
Warning: card &IONS ignored
Warning: card / ignored
Warning: card &CELL ignored
Warning: card / ignored

     Current dimensions of program PWSCF are:
     Max number of different atomic species (ntypx) = 10
     Max number of k-points (npk) =  40000
     Max angular momentum in pseudopotentials (lmaxx) =  3
               file Si.pbe-n-kjpaw_psl.0.1.UPF: wavefunction(s)  3S renormalized

     Subspace diagonalization in iterative solution of the eigenvalue problem:
     a serial algorithm will be used

 
     G-vector sticks info
     --------------------
     sticks:   dense  smooth     PW     G-vecs:    dense   smooth      PW
     Sum         583     583    187                 9257     9257    1639
 


     bravais-lattice index     =            2
     lattice parameter (alat)  =      10.2600  a.u.
     unit-cell volume          =     270.0114 (a.u.)^3
     number of atoms/cell      =            2
     number of atomic types    =            1
     number of electrons       =         8.00
     number of Kohn-Sham states=            4
     kinetic-energy cutoff     =      40.0000  Ry
     charge density cutoff     =     160.0000  Ry
     convergence threshold     =      1.0E-06
     mixing beta               =       0.7000
     number of iterations used =            8  plain     mixing
     Exchange-correlation      =  SLA  PW   PBX  PBC ( 1  4  3  4 0)

     celldm(1)=  10.260000  celldm(2)=   0.000000  celldm(3)=   0.000000
     celldm(4)=   0.000000  celldm(5)=   0.000000  celldm(6)=   0.000000

     crystal axes: (cart. coord. in units of alat)
               a(1) = (  -0.500000   0.000000   0.500000 )  
               a(2) = (   0.000000   0.500000   0.500000 )  
               a(3) = (  -0.500000   0.500000   0.000000 )  

     reciprocal axes: (cart. coord. in units 2 pi/alat)
               b(1) = ( -1.000000 -1.000000  1.000000 )  
               b(2) = (  1.000000  1.000000  1.000000 )  
               b(3) = ( -1.000000  1.000000 -1.000000 )  


     PseudoPot. # 1 for Si read from file:
     ./Si.pbe-n-kjpaw_psl.0.1.UPF
     MD5 check sum: b9d333a40e496bef61db012f150758bf
     Pseudo is Projector augmented-wave + core cor, Zval =  4.0
     Generated using "atomic" code by A. Dal Corso  v.5.0.2 svn rev. 9415
     Shape of augmentation charge: PSQ
     Using radial grid of 1141 points,  4 beta functions with: 
                l(1) =   0
                l(2) =   0
                l(3) =   1
                l(4) =   1
     Q(r) pseudized with 0 coefficients 


     atomic species   valence    mass     pseudopotential
        Si             4.00    28.05500     Si( 1.00)

     24 Sym. Ops. (no inversion) found
          (note: 24 additional sym.ops. were found but ignored
           their fractional translations are incommensurate with FFT grid)


   Cartesian axes

     site n.     atom                  positions (alat units)
         1           Si  tau(   1) = (   0.0000000   0.0000000   0.0000000  )
         2           Si  tau(   2) = (  -0.2500000   0.2500000   0.2500000  )

     number of k points=    47
                       cart. coord. in units 2pi/alat
        k(    1) = (   0.0000000   0.0000000   0.0000000), wk =   0.0020000
        k(    2) = (  -0.1000000   0.1000000  -0.1000000), wk =   0.0160000
        k(    3) = (  -0.2000000   0.2000000  -0.2000000), wk =   0.0160000
        k(    4) = (  -0.3000000   0.3000000  -0.3000000), wk =   0.0160000
        k(    5) = (  -0.4000000   0.4000000  -0.4000000), wk =   0.0160000
        k(    6) = (   0.5000000  -0.5000000   0.5000000), wk =   0.0080000
        k(    7) = (   0.0000000   0.2000000   0.0000000), wk =   0.0120000
        k(    8) = (  -0.1000000   0.3000000  -0.1000000), wk =   0.0480000
        k(    9) = (  -0.2000000   0.4000000  -0.2000000), wk =   0.0480000
        k(   10) = (  -0.3000000   0.5000000  -0.3000000), wk =   0.0480000
        k(   11) = (   0.6000000  -0.4000000   0.6000000), wk =   0.0480000
        k(   12) = (   0.5000000  -0.3000000   0.5000000), wk =   0.0480000
        k(   13) = (   0.4000000  -0.2000000   0.4000000), wk =   0.0480000
        k(   14) = (   0.3000000  -0.1000000   0.3000000), wk =   0.0480000
        k(   15) = (   0.2000000   0.0000000   0.2000000), wk =   0.0240000
        k(   16) = (   0.0000000   0.4000000   0.0000000), wk =   0.0120000
        k(   17) = (  -0.1000000   0.5000000  -0.1000000), wk =   0.0480000
        k(   18) = (  -0.2000000   0.6000000  -0.2000000), wk =   0.0480000
        k(   19) = (   0.7000000  -0.3000000   0.7000000), wk =   0.0480000
        k(   20) = (   0.6000000  -0.2000000   0.6000000), wk =   0.0480000
        k(   21) = (   0.5000000  -0.1000000   0.5000000), wk =   0.0480000
        k(   22) = (   0.4000000   0.0000000   0.4000000), wk =   0.0240000
        k(   23) = (   0.0000000   0.6000000   0.0000000), wk =   0.0120000
        k(   24) = (  -0.1000000   0.7000000  -0.1000000), wk =   0.0480000
        k(   25) = (   0.8000000  -0.2000000   0.8000000), wk =   0.0480000
        k(   26) = (   0.7000000  -0.1000000   0.7000000), wk =   0.0480000
        k(   27) = (   0.6000000  -0.0000000   0.6000000), wk =   0.0240000
        k(   28) = (   0.0000000   0.8000000   0.0000000), wk =   0.0120000
        k(   29) = (   0.9000000  -0.1000000   0.9000000), wk =   0.0480000
        k(   30) = (   0.8000000   0.0000000   0.8000000), wk =   0.0240000
        k(   31) = (   0.0000000  -1.0000000   0.0000000), wk =   0.0060000
        k(   32) = (  -0.2000000   0.4000000   0.0000000), wk =   0.0480000
        k(   33) = (  -0.3000000   0.5000000  -0.1000000), wk =   0.0960000
        k(   34) = (   0.6000000  -0.4000000   0.8000000), wk =   0.0960000
        k(   35) = (   0.5000000  -0.3000000   0.7000000), wk =   0.0480000
        k(   36) = (  -0.2000000   0.6000000   0.0000000), wk =   0.0480000
        k(   37) = (   0.7000000  -0.3000000   0.9000000), wk =   0.0960000
        k(   38) = (   0.6000000  -0.2000000   0.8000000), wk =   0.0960000
        k(   39) = (   0.5000000  -0.1000000   0.7000000), wk =   0.0960000
        k(   40) = (   0.4000000   0.0000000   0.6000000), wk =   0.0480000
        k(   41) = (   0.8000000  -0.2000000   1.0000000), wk =   0.0480000
        k(   42) = (   0.7000000  -0.1000000   0.9000000), wk =   0.0960000
        k(   43) = (   0.6000000   0.0000000   0.8000000), wk =   0.0480000
        k(   44) = (  -0.2000000  -1.0000000   0.0000000), wk =   0.0240000
        k(   45) = (   0.6000000  -0.2000000   1.0000000), wk =   0.0480000
        k(   46) = (   0.5000000  -0.1000000   0.9000000), wk =   0.0480000
        k(   47) = (  -0.4000000  -1.0000000   0.0000000), wk =   0.0240000

     Dense  grid:     9257 G-vectors     FFT dimensions: (  30,  30,  30)

     Largest allocated arrays     est. size (Mb)     dimensions
        Kohn-Sham Wavefunctions         0.07 Mb     (    1179,    4)
        NL pseudopotentials             0.29 Mb     (    1179,   16)
        Each V/rho on FFT grid          0.41 Mb     (   27000)
        Each G-vector array             0.07 Mb     (    9257)
        G-vector shells                 0.00 Mb     (     144)
     Largest temporary arrays     est. size (Mb)     dimensions
        Auxiliary wavefunctions         0.29 Mb     (    1179,   16)
        Each subspace H/S matrix        0.00 Mb     (      16,   16)
        Each <psi_i|beta_j> matrix      0.00 Mb     (      16,    4)
        Arrays for rho mixing           3.30 Mb     (   27000,    8)

     Check: negative/imaginary core charge=   -0.000003    0.000000

     Initial potential from superposition of free atoms

     starting charge    7.99888, renormalised to    8.00000
     Starting wfc are    8 randomized atomic wfcs
     Checking if some PAW data can be deallocated... 

     total cpu time spent up to now is        1.7 secs

     per-process dynamical memory:    11.6 Mb

     Self-consistent Calculation

     iteration #  1     ecut=    40.00 Ry     beta=0.70
     Davidson diagonalization with overlap
     ethr =  1.00E-02,  avg # of iterations =  2.0

     Threshold (ethr) on eigenvalues was too large:
     Diagonalizing with lowered threshold

     Davidson diagonalization with overlap
     ethr =  7.18E-04,  avg # of iterations =  1.0

     total cpu time spent up to now is        4.4 secs

     total energy              =     -93.45146829 Ry
     Harris-Foulkes estimate   =     -93.46527668 Ry
     estimated scf accuracy    <       0.05702979 Ry

     iteration #  2     ecut=    40.00 Ry     beta=0.70
     Davidson diagonalization with overlap
     ethr =  7.13E-04,  avg # of iterations =  1.0

     total cpu time spent up to now is        5.6 secs

     total energy              =     -93.45360650 Ry
     Harris-Foulkes estimate   =     -93.45373784 Ry
     estimated scf accuracy    <       0.00242519 Ry

     iteration #  3     ecut=    40.00 Ry     beta=0.70
     Davidson diagonalization with overlap
     ethr =  3.03E-05,  avg # of iterations =  2.1

     total cpu time spent up to now is        7.0 secs

     total energy              =     -93.45390429 Ry
     Harris-Foulkes estimate   =     -93.45392343 Ry
     estimated scf accuracy    <       0.00005478 Ry

     iteration #  4     ecut=    40.00 Ry     beta=0.70
     Davidson diagonalization with overlap
     ethr =  6.85E-07,  avg # of iterations =  2.8

     total cpu time spent up to now is        8.8 secs

     total energy              =     -93.45393028 Ry
     Harris-Foulkes estimate   =     -93.45393150 Ry
     estimated scf accuracy    <       0.00000318 Ry

     iteration #  5     ecut=    40.00 Ry     beta=0.70
     Davidson diagonalization with overlap
     ethr =  3.98E-08,  avg # of iterations =  2.6

     total cpu time spent up to now is       10.4 secs

     End of self-consistent calculation

          k = 0.0000 0.0000 0.0000 (  1139 PWs)   bands (ev):

    -5.7536   6.2181   6.2181   6.2181

          k =-0.1000 0.1000-0.1000 (  1179 PWs)   bands (ev):

    -5.6225   5.0717   6.0194   6.0194

          k =-0.2000 0.2000-0.2000 (  1167 PWs)   bands (ev):

    -5.2354   3.2073   5.6381   5.6381

          k =-0.3000 0.3000-0.3000 (  1155 PWs)   bands (ev):

    -4.6190   1.4194   5.3027   5.3027

          k =-0.4000 0.4000-0.4000 (  1149 PWs)   bands (ev):

    -3.8707  -0.0585   5.0899   5.0899

          k = 0.5000-0.5000 0.5000 (  1158 PWs)   bands (ev):

    -3.4184  -0.7575   5.0182   5.0182

          k = 0.0000 0.2000 0.0000 (  1171 PWs)   bands (ev):

    -5.5785   5.2790   5.6410   5.6410

          k =-0.1000 0.3000-0.1000 (  1164 PWs)   bands (ev):

    -5.2755   3.7652   5.2053   5.3769

          k =-0.2000 0.4000-0.2000 (  1159 PWs)   bands (ev):

    -4.7311   2.0029   4.8859   4.9430

          k =-0.3000 0.5000-0.3000 (  1150 PWs)   bands (ev):

    -4.0059   0.4279   4.5308   4.7383

          k = 0.6000-0.4000 0.6000 (  1158 PWs)   bands (ev):

    -3.3639  -0.6109   4.2400   4.7713

          k = 0.5000-0.3000 0.5000 (  1157 PWs)   bands (ev):

    -3.5315  -0.3617   4.1113   4.9714

          k = 0.4000-0.2000 0.4000 (  1144 PWs)   bands (ev):

    -4.2618   0.9224   4.1712   5.3066

          k = 0.3000-0.1000 0.3000 (  1156 PWs)   bands (ev):

    -4.9388   2.5736   4.4467   5.7135

          k = 0.2000 0.0000 0.2000 (  1165 PWs)   bands (ev):

    -5.4055   4.1862   5.0565   6.0412

          k = 0.0000 0.4000 0.0000 (  1170 PWs)   bands (ev):

    -5.0570   3.5934   4.7285   4.7285

          k =-0.1000 0.5000-0.1000 (  1146 PWs)   bands (ev):

    -4.5906   2.3455   4.2207   4.3798

          k =-0.2000 0.6000-0.2000 (  1156 PWs)   bands (ev):

    -3.9142   0.9065   3.5918   4.2198

          k = 0.7000-0.3000 0.7000 (  1143 PWs)   bands (ev):

    -3.1818  -0.2797   3.0814   4.2639

          k = 0.6000-0.2000 0.6000 (  1163 PWs)   bands (ev):

    -3.0285  -0.4884   2.7823   4.5025

          k = 0.5000-0.1000 0.5000 (  1150 PWs)   bands (ev):

    -3.6836   0.5002   2.7614   4.9006

          k = 0.4000 0.0000 0.4000 (  1151 PWs)   bands (ev):

    -4.4027   1.7400   3.2147   5.3718

          k = 0.0000 0.6000 0.0000 (  1146 PWs)   bands (ev):

    -4.2020   1.8005   3.9863   3.9863

          k =-0.1000 0.7000-0.1000 (  1149 PWs)   bands (ev):

    -3.5882   0.7939   3.3593   3.7812

          k = 0.8000-0.2000 0.8000 (  1146 PWs)   bands (ev):

    -2.8368  -0.2133   2.5293   3.7878

          k = 0.7000-0.1000 0.7000 (  1150 PWs)   bands (ev):

    -2.4167  -0.6900   1.9750   4.0037

          k = 0.6000-0.0000 0.6000 (  1145 PWs)   bands (ev):

    -2.9560  -0.0996   1.9489   4.4006

          k = 0.0000 0.8000 0.0000 (  1154 PWs)   bands (ev):

    -3.0374   0.0369   3.5207   3.5207

          k = 0.9000-0.1000 0.9000 (  1148 PWs)   bands (ev):

    -2.3075  -0.8044   2.9340   3.4721

          k = 0.8000 0.0000 0.8000 (  1144 PWs)   bands (ev):

    -1.8307  -1.2254   2.1497   3.6396

          k = 0.0000-1.0000 0.0000 (  1162 PWs)   bands (ev):

    -1.6038  -1.6037   3.3629   3.3629

          k =-0.2000 0.4000 0.0000 (  1154 PWs)   bands (ev):

    -4.8915   2.8424   4.1352   5.2460

          k =-0.3000 0.5000-0.1000 (  1150 PWs)   bands (ev):

    -4.2791   1.4321   3.5462   4.8702

          k = 0.6000-0.4000 0.8000 (  1149 PWs)   bands (ev):

    -3.5310   0.0675   3.3149   4.5195

          k = 0.5000-0.3000 0.7000 (  1156 PWs)   bands (ev):

    -3.0710  -0.6112   3.2552   4.3814

          k =-0.2000 0.6000 0.0000 (  1152 PWs)   bands (ev):

    -4.0520   1.4439   3.4077   4.1307

          k = 0.7000-0.3000 0.9000 (  1158 PWs)   bands (ev):

    -3.3307   0.3411   2.7886   3.8014

          k = 0.6000-0.2000 0.8000 (  1158 PWs)   bands (ev):

    -2.6794  -0.5230   2.3798   3.7457

          k = 0.5000-0.1000 0.7000 (  1152 PWs)   bands (ev):

    -2.8812  -0.2633   2.2289   3.9861

          k = 0.4000 0.0000 0.6000 (  1149 PWs)   bands (ev):

    -3.6180   0.6873   2.5295   4.4269

          k = 0.8000-0.2000 1.0000 (  1162 PWs)   bands (ev):

    -2.9189  -0.0488   2.9962   3.3229

          k = 0.7000-0.1000 0.9000 (  1153 PWs)   bands (ev):

    -2.1794  -0.8242   2.2934   3.2321

          k = 0.6000 0.0000 0.8000 (  1153 PWs)   bands (ev):

    -2.1849  -0.7976   1.8769   3.5022

          k =-0.2000-1.0000 0.0000 (  1156 PWs)   bands (ev):

    -1.5506  -1.5504   2.9533   2.9533

          k = 0.6000-0.2000 1.0000 (  1151 PWs)   bands (ev):

    -2.5975  -0.3470   2.2347   3.2229

          k = 0.5000-0.1000 0.9000 (  1148 PWs)   bands (ev):

    -2.0855  -0.8568   2.0768   2.9714

          k =-0.4000-1.0000 0.0000 (  1154 PWs)   bands (ev):

    -1.4567  -1.4565   2.4392   2.4393

     highest occupied level (ev):     6.2181

!    total energy              =     -93.45393123 Ry
     Harris-Foulkes estimate   =     -93.45393131 Ry
     estimated scf accuracy    <       0.00000008 Ry

     total all-electron energy =     -1160.145667 Ry

     The total energy is the sum of the following terms:

     one-electron contribution =       5.74099361 Ry
     hartree contribution      =       1.09701962 Ry
     xc contribution           =     -12.25641663 Ry
     ewald contribution        =     -16.80092960 Ry
     one-center paw contrib.   =     -71.23459823 Ry

     convergence has been achieved in   5 iterations

     Forces acting on atoms (Ry/au):

     atom    1 type  1   force =     0.00000000    0.00000000   -0.00000000
     atom    2 type  1   force =     0.00000000    0.00000000    0.00000000

     Total force =     0.000000     Total SCF correction =     0.000000


     entering subroutine stress ...

          total   stress  (Ry/bohr**3)                   (kbar)     P=   19.00
   0.00012917  -0.00000000  -0.00000000         19.00     -0.00     -0.00
  -0.00000000   0.00012917   0.00000000         -0.00     19.00      0.00
  -0.00000000   0.00000000   0.00012917         -0.00      0.00     19.00


     Writing output data file pwscf.save
 
     init_run     :      1.43s CPU      1.45s WALL (       1 calls)
     electrons    :      8.59s CPU      8.68s WALL (       1 calls)
     forces       :      0.12s CPU      0.13s WALL (       1 calls)
     stress       :      0.44s CPU      0.45s WALL (       1 calls)

     Called by init_run:
     wfcinit      :      0.77s CPU      0.77s WALL (       1 calls)
     potinit      :      0.19s CPU      0.20s WALL (       1 calls)

     Called by electrons:
     c_bands      :      6.25s CPU      6.31s WALL (       6 calls)
     sum_band     :      1.31s CPU      1.32s WALL (       6 calls)
     v_of_rho     :      0.18s CPU      0.18s WALL (       6 calls)
     newd         :      0.08s CPU      0.09s WALL (       6 calls)
     mix_rho      :      0.01s CPU      0.01s WALL (       6 calls)

     Called by c_bands:
     init_us_2    :      0.29s CPU      0.29s WALL (     705 calls)
     cegterg      :      5.77s CPU      5.83s WALL (     282 calls)

     Called by *egterg:
     h_psi        :      5.98s CPU      6.01s WALL (     868 calls)
     s_psi        :      0.12s CPU      0.12s WALL (     868 calls)
     g_psi        :      0.04s CPU      0.05s WALL (     539 calls)
     cdiaghg      :      0.06s CPU      0.07s WALL (     774 calls)

     Called by h_psi:
     add_vuspsi   :      0.13s CPU      0.12s WALL (     868 calls)

     General routines
     calbec       :      0.18s CPU      0.18s WALL (    1244 calls)
     fft          :      0.13s CPU      0.13s WALL (     105 calls)
     fftw         :      6.21s CPU      6.24s WALL (    7812 calls)
     davcio       :      0.00s CPU      0.00s WALL (      47 calls)
 
     Parallel routines
     fft_scatter  :      0.33s CPU      0.36s WALL (    7917 calls)

     PAW routines
     PAW_pot      :      0.95s CPU      0.95s WALL (       6 calls)
     PAW_symme    :      0.00s CPU      0.00s WALL (      12 calls)
 
     PWSCF        :    11.06s CPU        11.27s WALL

 
   This run was terminated on:  20:24:26  28Apr2015            

=------------------------------------------------------------------------------=
   JOB DONE.
=------------------------------------------------------------------------------=
