
     Program PWSCF v.5.1 starts on 28Apr2015 at 20:17:18 

     This program is part of the open-source Quantum ESPRESSO suite
     for quantum simulation of materials; please cite
         "P. Giannozzi et al., J. Phys.:Condens. Matter 21 395502 (2009);
          URL http://www.quantum-espresso.org", 
     in publications or presentations arising from this work. More details at
     http://www.quantum-espresso.org/quote

     Parallel version (MPI), running on     1 processors
     Waiting for input...
     Reading input from standard input
Warning: card &IONS ignored
Warning: card / ignored
Warning: card &CELL ignored
Warning: card / ignored

     Current dimensions of program PWSCF are:
     Max number of different atomic species (ntypx) = 10
     Max number of k-points (npk) =  40000
     Max angular momentum in pseudopotentials (lmaxx) =  3
               file Si.pbe-n-kjpaw_psl.0.1.UPF: wavefunction(s)  3S renormalized

     Subspace diagonalization in iterative solution of the eigenvalue problem:
     a serial algorithm will be used

 
     G-vector sticks info
     --------------------
     sticks:   dense  smooth     PW     G-vecs:    dense   smooth      PW
     Sum         583     583    187                 9257     9257    1639
 


     bravais-lattice index     =            2
     lattice parameter (alat)  =      10.2600  a.u.
     unit-cell volume          =     270.0114 (a.u.)^3
     number of atoms/cell      =            2
     number of atomic types    =            1
     number of electrons       =         8.00
     number of Kohn-Sham states=            4
     kinetic-energy cutoff     =      40.0000  Ry
     charge density cutoff     =     160.0000  Ry
     convergence threshold     =      1.0E-06
     mixing beta               =       0.7000
     number of iterations used =            8  plain     mixing
     Exchange-correlation      =  SLA  PW   PBX  PBC ( 1  4  3  4 0)

     celldm(1)=  10.260000  celldm(2)=   0.000000  celldm(3)=   0.000000
     celldm(4)=   0.000000  celldm(5)=   0.000000  celldm(6)=   0.000000

     crystal axes: (cart. coord. in units of alat)
               a(1) = (  -0.500000   0.000000   0.500000 )  
               a(2) = (   0.000000   0.500000   0.500000 )  
               a(3) = (  -0.500000   0.500000   0.000000 )  

     reciprocal axes: (cart. coord. in units 2 pi/alat)
               b(1) = ( -1.000000 -1.000000  1.000000 )  
               b(2) = (  1.000000  1.000000  1.000000 )  
               b(3) = ( -1.000000  1.000000 -1.000000 )  


     PseudoPot. # 1 for Si read from file:
     ./Si.pbe-n-kjpaw_psl.0.1.UPF
     MD5 check sum: b9d333a40e496bef61db012f150758bf
     Pseudo is Projector augmented-wave + core cor, Zval =  4.0
     Generated using "atomic" code by A. Dal Corso  v.5.0.2 svn rev. 9415
     Shape of augmentation charge: PSQ
     Using radial grid of 1141 points,  4 beta functions with: 
                l(1) =   0
                l(2) =   0
                l(3) =   1
                l(4) =   1
     Q(r) pseudized with 0 coefficients 


     atomic species   valence    mass     pseudopotential
        Si             4.00    28.05500     Si( 1.00)

     24 Sym. Ops. (no inversion) found
          (note: 24 additional sym.ops. were found but ignored
           their fractional translations are incommensurate with FFT grid)


   Cartesian axes

     site n.     atom                  positions (alat units)
         1           Si  tau(   1) = (   0.0000000   0.0000000   0.0000000  )
         2           Si  tau(   2) = (  -0.2500000   0.2500000   0.2500000  )

     number of k points=    20
                       cart. coord. in units 2pi/alat
        k(    1) = (   0.0000000   0.0000000   0.0000000), wk =   0.0058309
        k(    2) = (  -0.1428571   0.1428571  -0.1428571), wk =   0.0466472
        k(    3) = (  -0.2857143   0.2857143  -0.2857143), wk =   0.0466472
        k(    4) = (  -0.4285714   0.4285714  -0.4285714), wk =   0.0466472
        k(    5) = (   0.0000000   0.2857143   0.0000000), wk =   0.0349854
        k(    6) = (  -0.1428571   0.4285714  -0.1428571), wk =   0.1399417
        k(    7) = (  -0.2857143   0.5714286  -0.2857143), wk =   0.1399417
        k(    8) = (   0.5714286  -0.2857143   0.5714286), wk =   0.1399417
        k(    9) = (   0.4285714  -0.1428571   0.4285714), wk =   0.1399417
        k(   10) = (   0.2857143  -0.0000000   0.2857143), wk =   0.0699708
        k(   11) = (   0.0000000   0.5714286   0.0000000), wk =   0.0349854
        k(   12) = (  -0.1428571   0.7142857  -0.1428571), wk =   0.1399417
        k(   13) = (   0.7142857  -0.1428571   0.7142857), wk =   0.1399417
        k(   14) = (   0.5714286   0.0000000   0.5714286), wk =   0.0699708
        k(   15) = (   0.0000000   0.8571429   0.0000000), wk =   0.0349854
        k(   16) = (   0.8571429  -0.0000000   0.8571429), wk =   0.0699708
        k(   17) = (  -0.2857143   0.5714286   0.0000000), wk =   0.1399417
        k(   18) = (   0.5714286  -0.2857143   0.8571429), wk =   0.2798834
        k(   19) = (   0.7142857  -0.1428571   1.0000000), wk =   0.1399417
        k(   20) = (   0.5714286   0.0000000   0.8571429), wk =   0.1399417

     Dense  grid:     9257 G-vectors     FFT dimensions: (  30,  30,  30)

     Largest allocated arrays     est. size (Mb)     dimensions
        Kohn-Sham Wavefunctions         0.07 Mb     (    1173,    4)
        NL pseudopotentials             0.29 Mb     (    1173,   16)
        Each V/rho on FFT grid          0.41 Mb     (   27000)
        Each G-vector array             0.07 Mb     (    9257)
        G-vector shells                 0.00 Mb     (     144)
     Largest temporary arrays     est. size (Mb)     dimensions
        Auxiliary wavefunctions         0.29 Mb     (    1173,   16)
        Each subspace H/S matrix        0.00 Mb     (      16,   16)
        Each <psi_i|beta_j> matrix      0.00 Mb     (      16,    4)
        Arrays for rho mixing           3.30 Mb     (   27000,    8)

     Check: negative/imaginary core charge=   -0.000003    0.000000

     Initial potential from superposition of free atoms

     starting charge    7.99888, renormalised to    8.00000
     Starting wfc are    8 randomized atomic wfcs
     Checking if some PAW data can be deallocated... 

     total cpu time spent up to now is        1.3 secs

     per-process dynamical memory:     9.7 Mb

     Self-consistent Calculation

     iteration #  1     ecut=    40.00 Ry     beta=0.70
     Davidson diagonalization with overlap
     ethr =  1.00E-02,  avg # of iterations =  2.0

     Threshold (ethr) on eigenvalues was too large:
     Diagonalizing with lowered threshold

     Davidson diagonalization with overlap
     ethr =  7.23E-04,  avg # of iterations =  1.0

     total cpu time spent up to now is        2.5 secs

     total energy              =     -93.45082905 Ry
     Harris-Foulkes estimate   =     -93.46475342 Ry
     estimated scf accuracy    <       0.05745237 Ry

     iteration #  2     ecut=    40.00 Ry     beta=0.70
     Davidson diagonalization with overlap
     ethr =  7.18E-04,  avg # of iterations =  1.0

     total cpu time spent up to now is        3.2 secs

     total energy              =     -93.45297516 Ry
     Harris-Foulkes estimate   =     -93.45310772 Ry
     estimated scf accuracy    <       0.00244775 Ry

     iteration #  3     ecut=    40.00 Ry     beta=0.70
     Davidson diagonalization with overlap
     ethr =  3.06E-05,  avg # of iterations =  1.9

     total cpu time spent up to now is        3.9 secs

     total energy              =     -93.45326117 Ry
     Harris-Foulkes estimate   =     -93.45327809 Ry
     estimated scf accuracy    <       0.00005316 Ry

     iteration #  4     ecut=    40.00 Ry     beta=0.70
     Davidson diagonalization with overlap
     ethr =  6.64E-07,  avg # of iterations =  3.1

     total cpu time spent up to now is        4.8 secs

     total energy              =     -93.45328858 Ry
     Harris-Foulkes estimate   =     -93.45328932 Ry
     estimated scf accuracy    <       0.00000208 Ry

     iteration #  5     ecut=    40.00 Ry     beta=0.70
     Davidson diagonalization with overlap
     ethr =  2.60E-08,  avg # of iterations =  2.9

     total cpu time spent up to now is        5.7 secs

     End of self-consistent calculation

          k = 0.0000 0.0000 0.0000 (  1139 PWs)   bands (ev):

    -5.7510   6.2213   6.2213   6.2213

          k =-0.1429 0.1429-0.1429 (  1173 PWs)   bands (ev):

    -5.4844   4.2877   5.8635   5.8635

          k =-0.2857 0.2857-0.2857 (  1161 PWs)   bands (ev):

    -4.7162   1.6639   5.3469   5.3469

          k =-0.4286 0.4286-0.4286 (  1155 PWs)   bands (ev):

    -3.6722  -0.3723   5.0577   5.0577

          k = 0.0000 0.2857 0.0000 (  1163 PWs)   bands (ev):

    -5.3943   4.5898   5.2467   5.2467

          k =-0.1429 0.4286-0.1429 (  1154 PWs)   bands (ev):

    -4.7860   2.4610   4.6647   4.7032

          k =-0.2857 0.5714-0.2857 (  1157 PWs)   bands (ev):

    -3.7742   0.2705   3.9750   4.5142

          k = 0.5714-0.2857 0.5714 (  1159 PWs)   bands (ev):

    -3.2128  -0.5973   3.5594   4.7129

          k = 0.4286-0.1429 0.4286 (  1154 PWs)   bands (ev):

    -4.1439   0.9527   3.5623   5.2285

          k = 0.2857-0.0000 0.2857 (  1157 PWs)   bands (ev):

    -5.0472   3.0821   4.2514   5.8233

          k = 0.0000 0.5714 0.0000 (  1158 PWs)   bands (ev):

    -4.3411   2.0602   4.0792   4.0792

          k =-0.1429 0.7143-0.1429 (  1144 PWs)   bands (ev):

    -3.4362   0.5536   3.0978   3.8189

          k = 0.7143-0.1429 0.7143 (  1151 PWs)   bands (ev):

    -2.5146  -0.6300   2.1419   3.9883

          k = 0.5714 0.0000 0.5714 (  1151 PWs)   bands (ev):

    -3.1673   0.1236   2.0667   4.5394

          k = 0.0000 0.8571 0.0000 (  1154 PWs)   bands (ev):

    -2.6502  -0.4455   3.4461   3.4461

          k = 0.8571-0.0000 0.8571 (  1154 PWs)   bands (ev):

    -1.6966  -1.4077   2.5483   3.5079

          k =-0.2857 0.5714 0.0000 (  1142 PWs)   bands (ev):

    -4.0315   1.3209   3.1007   4.4304

          k = 0.5714-0.2857 0.8571 (  1146 PWs)   bands (ev):

    -2.9858  -0.2164   2.5285   3.8912

          k = 0.7143-0.1429 1.0000 (  1160 PWs)   bands (ev):

    -2.4441  -0.5312   2.6157   3.0274

          k = 0.5714 0.0000 0.8571 (  1162 PWs)   bands (ev):

    -2.0049  -0.9298   1.9734   3.1199

     highest occupied level (ev):     6.2213

!    total energy              =     -93.45328931 Ry
     Harris-Foulkes estimate   =     -93.45328937 Ry
     estimated scf accuracy    <       0.00000006 Ry

     total all-electron energy =     -1160.145025 Ry

     The total energy is the sum of the following terms:

     one-electron contribution =       5.74068780 Ry
     hartree contribution      =       1.09891850 Ry
     xc contribution           =     -12.25734792 Ry
     ewald contribution        =     -16.80092960 Ry
     one-center paw contrib.   =     -71.23461809 Ry

     convergence has been achieved in   5 iterations

     Forces acting on atoms (Ry/au):

     atom    1 type  1   force =    -0.00000000   -0.00000000   -0.00000000
     atom    2 type  1   force =     0.00000000    0.00000000   -0.00000000

     Total force =     0.000000     Total SCF correction =     0.000000


     entering subroutine stress ...

          total   stress  (Ry/bohr**3)                   (kbar)     P=   19.26
   0.00013096   0.00000000   0.00000000         19.26      0.00      0.00
   0.00000000   0.00013096   0.00000000          0.00     19.26      0.00
   0.00000000   0.00000000   0.00013096          0.00      0.00     19.26


     Writing output data file pwscf.save
 
     init_run     :      0.98s CPU      0.99s WALL (       1 calls)
     electrons    :      4.34s CPU      4.38s WALL (       1 calls)
     forces       :      0.09s CPU      0.09s WALL (       1 calls)
     stress       :      0.29s CPU      0.29s WALL (       1 calls)

     Called by init_run:
     wfcinit      :      0.32s CPU      0.32s WALL (       1 calls)
     potinit      :      0.19s CPU      0.20s WALL (       1 calls)

     Called by electrons:
     c_bands      :      2.69s CPU      2.72s WALL (       6 calls)
     sum_band     :      0.61s CPU      0.62s WALL (       6 calls)
     v_of_rho     :      0.18s CPU      0.18s WALL (       6 calls)
     newd         :      0.08s CPU      0.09s WALL (       6 calls)
     mix_rho      :      0.01s CPU      0.01s WALL (       6 calls)

     Called by c_bands:
     init_us_2    :      0.11s CPU      0.12s WALL (     300 calls)
     cegterg      :      2.49s CPU      2.51s WALL (     120 calls)

     Called by *egterg:
     h_psi        :      2.55s CPU      2.58s WALL (     378 calls)
     s_psi        :      0.05s CPU      0.05s WALL (     378 calls)
     g_psi        :      0.03s CPU      0.02s WALL (     238 calls)
     cdiaghg      :      0.02s CPU      0.03s WALL (     338 calls)

     Called by h_psi:
     add_vuspsi   :      0.05s CPU      0.05s WALL (     378 calls)

     General routines
     calbec       :      0.08s CPU      0.08s WALL (     538 calls)
     fft          :      0.13s CPU      0.13s WALL (     105 calls)
     fftw         :      2.65s CPU      2.66s WALL (    3346 calls)
     davcio       :      0.00s CPU      0.00s WALL (      20 calls)
 
     Parallel routines
     fft_scatter  :      0.15s CPU      0.16s WALL (    3451 calls)

     PAW routines
     PAW_pot      :      0.95s CPU      0.95s WALL (       6 calls)
     PAW_symme    :      0.00s CPU      0.00s WALL (      12 calls)
 
     PWSCF        :     6.10s CPU         6.19s WALL

 
   This run was terminated on:  20:17:25  28Apr2015            

=------------------------------------------------------------------------------=
   JOB DONE.
=------------------------------------------------------------------------------=
