
     Program PWSCF v.5.1 starts on 28Apr2015 at 20:24:26 

     This program is part of the open-source Quantum ESPRESSO suite
     for quantum simulation of materials; please cite
         "P. Giannozzi et al., J. Phys.:Condens. Matter 21 395502 (2009);
          URL http://www.quantum-espresso.org", 
     in publications or presentations arising from this work. More details at
     http://www.quantum-espresso.org/quote

     Parallel version (MPI), running on     1 processors
     Waiting for input...
     Reading input from standard input
Warning: card &IONS ignored
Warning: card / ignored
Warning: card &CELL ignored
Warning: card / ignored

     Current dimensions of program PWSCF are:
     Max number of different atomic species (ntypx) = 10
     Max number of k-points (npk) =  40000
     Max angular momentum in pseudopotentials (lmaxx) =  3
               file Si.pbe-n-kjpaw_psl.0.1.UPF: wavefunction(s)  3S renormalized

     Subspace diagonalization in iterative solution of the eigenvalue problem:
     a serial algorithm will be used

 
     G-vector sticks info
     --------------------
     sticks:   dense  smooth     PW     G-vecs:    dense   smooth      PW
     Sum         733     733    223                12939    12939    2229
 


     bravais-lattice index     =            2
     lattice parameter (alat)  =      10.2600  a.u.
     unit-cell volume          =     270.0114 (a.u.)^3
     number of atoms/cell      =            2
     number of atomic types    =            1
     number of electrons       =         8.00
     number of Kohn-Sham states=            4
     kinetic-energy cutoff     =      50.0000  Ry
     charge density cutoff     =     200.0000  Ry
     convergence threshold     =      1.0E-06
     mixing beta               =       0.7000
     number of iterations used =            8  plain     mixing
     Exchange-correlation      =  SLA  PW   PBX  PBC ( 1  4  3  4 0)

     celldm(1)=  10.260000  celldm(2)=   0.000000  celldm(3)=   0.000000
     celldm(4)=   0.000000  celldm(5)=   0.000000  celldm(6)=   0.000000

     crystal axes: (cart. coord. in units of alat)
               a(1) = (  -0.500000   0.000000   0.500000 )  
               a(2) = (   0.000000   0.500000   0.500000 )  
               a(3) = (  -0.500000   0.500000   0.000000 )  

     reciprocal axes: (cart. coord. in units 2 pi/alat)
               b(1) = ( -1.000000 -1.000000  1.000000 )  
               b(2) = (  1.000000  1.000000  1.000000 )  
               b(3) = ( -1.000000  1.000000 -1.000000 )  


     PseudoPot. # 1 for Si read from file:
     ./Si.pbe-n-kjpaw_psl.0.1.UPF
     MD5 check sum: b9d333a40e496bef61db012f150758bf
     Pseudo is Projector augmented-wave + core cor, Zval =  4.0
     Generated using "atomic" code by A. Dal Corso  v.5.0.2 svn rev. 9415
     Shape of augmentation charge: PSQ
     Using radial grid of 1141 points,  4 beta functions with: 
                l(1) =   0
                l(2) =   0
                l(3) =   1
                l(4) =   1
     Q(r) pseudized with 0 coefficients 


     atomic species   valence    mass     pseudopotential
        Si             4.00    28.05500     Si( 1.00)

     48 Sym. Ops., with inversion, found (24 have fractional translation)



   Cartesian axes

     site n.     atom                  positions (alat units)
         1           Si  tau(   1) = (   0.0000000   0.0000000   0.0000000  )
         2           Si  tau(   2) = (  -0.2500000   0.2500000   0.2500000  )

     number of k points=    47
                       cart. coord. in units 2pi/alat
        k(    1) = (   0.0000000   0.0000000   0.0000000), wk =   0.0020000
        k(    2) = (  -0.1000000   0.1000000  -0.1000000), wk =   0.0160000
        k(    3) = (  -0.2000000   0.2000000  -0.2000000), wk =   0.0160000
        k(    4) = (  -0.3000000   0.3000000  -0.3000000), wk =   0.0160000
        k(    5) = (  -0.4000000   0.4000000  -0.4000000), wk =   0.0160000
        k(    6) = (   0.5000000  -0.5000000   0.5000000), wk =   0.0080000
        k(    7) = (   0.0000000   0.2000000   0.0000000), wk =   0.0120000
        k(    8) = (  -0.1000000   0.3000000  -0.1000000), wk =   0.0480000
        k(    9) = (  -0.2000000   0.4000000  -0.2000000), wk =   0.0480000
        k(   10) = (  -0.3000000   0.5000000  -0.3000000), wk =   0.0480000
        k(   11) = (   0.6000000  -0.4000000   0.6000000), wk =   0.0480000
        k(   12) = (   0.5000000  -0.3000000   0.5000000), wk =   0.0480000
        k(   13) = (   0.4000000  -0.2000000   0.4000000), wk =   0.0480000
        k(   14) = (   0.3000000  -0.1000000   0.3000000), wk =   0.0480000
        k(   15) = (   0.2000000   0.0000000   0.2000000), wk =   0.0240000
        k(   16) = (   0.0000000   0.4000000   0.0000000), wk =   0.0120000
        k(   17) = (  -0.1000000   0.5000000  -0.1000000), wk =   0.0480000
        k(   18) = (  -0.2000000   0.6000000  -0.2000000), wk =   0.0480000
        k(   19) = (   0.7000000  -0.3000000   0.7000000), wk =   0.0480000
        k(   20) = (   0.6000000  -0.2000000   0.6000000), wk =   0.0480000
        k(   21) = (   0.5000000  -0.1000000   0.5000000), wk =   0.0480000
        k(   22) = (   0.4000000   0.0000000   0.4000000), wk =   0.0240000
        k(   23) = (   0.0000000   0.6000000   0.0000000), wk =   0.0120000
        k(   24) = (  -0.1000000   0.7000000  -0.1000000), wk =   0.0480000
        k(   25) = (   0.8000000  -0.2000000   0.8000000), wk =   0.0480000
        k(   26) = (   0.7000000  -0.1000000   0.7000000), wk =   0.0480000
        k(   27) = (   0.6000000  -0.0000000   0.6000000), wk =   0.0240000
        k(   28) = (   0.0000000   0.8000000   0.0000000), wk =   0.0120000
        k(   29) = (   0.9000000  -0.1000000   0.9000000), wk =   0.0480000
        k(   30) = (   0.8000000   0.0000000   0.8000000), wk =   0.0240000
        k(   31) = (   0.0000000  -1.0000000   0.0000000), wk =   0.0060000
        k(   32) = (  -0.2000000   0.4000000   0.0000000), wk =   0.0480000
        k(   33) = (  -0.3000000   0.5000000  -0.1000000), wk =   0.0960000
        k(   34) = (   0.6000000  -0.4000000   0.8000000), wk =   0.0960000
        k(   35) = (   0.5000000  -0.3000000   0.7000000), wk =   0.0480000
        k(   36) = (  -0.2000000   0.6000000   0.0000000), wk =   0.0480000
        k(   37) = (   0.7000000  -0.3000000   0.9000000), wk =   0.0960000
        k(   38) = (   0.6000000  -0.2000000   0.8000000), wk =   0.0960000
        k(   39) = (   0.5000000  -0.1000000   0.7000000), wk =   0.0960000
        k(   40) = (   0.4000000   0.0000000   0.6000000), wk =   0.0480000
        k(   41) = (   0.8000000  -0.2000000   1.0000000), wk =   0.0480000
        k(   42) = (   0.7000000  -0.1000000   0.9000000), wk =   0.0960000
        k(   43) = (   0.6000000   0.0000000   0.8000000), wk =   0.0480000
        k(   44) = (  -0.2000000  -1.0000000   0.0000000), wk =   0.0240000
        k(   45) = (   0.6000000  -0.2000000   1.0000000), wk =   0.0480000
        k(   46) = (   0.5000000  -0.1000000   0.9000000), wk =   0.0480000
        k(   47) = (  -0.4000000  -1.0000000   0.0000000), wk =   0.0240000

     Dense  grid:    12939 G-vectors     FFT dimensions: (  36,  36,  36)

     Largest allocated arrays     est. size (Mb)     dimensions
        Kohn-Sham Wavefunctions         0.10 Mb     (    1639,    4)
        NL pseudopotentials             0.40 Mb     (    1639,   16)
        Each V/rho on FFT grid          0.71 Mb     (   46656)
        Each G-vector array             0.10 Mb     (   12939)
        G-vector shells                 0.00 Mb     (     180)
     Largest temporary arrays     est. size (Mb)     dimensions
        Auxiliary wavefunctions         0.40 Mb     (    1639,   16)
        Each subspace H/S matrix        0.00 Mb     (      16,   16)
        Each <psi_i|beta_j> matrix      0.00 Mb     (      16,    4)
        Arrays for rho mixing           5.70 Mb     (   46656,    8)

     Initial potential from superposition of free atoms

     starting charge    7.99888, renormalised to    8.00000
     Starting wfc are    8 randomized atomic wfcs
     Checking if some PAW data can be deallocated... 

     total cpu time spent up to now is        2.3 secs

     per-process dynamical memory:    15.8 Mb

     Self-consistent Calculation

     iteration #  1     ecut=    50.00 Ry     beta=0.70
     Davidson diagonalization with overlap
     ethr =  1.00E-02,  avg # of iterations =  2.0

     Threshold (ethr) on eigenvalues was too large:
     Diagonalizing with lowered threshold

     Davidson diagonalization with overlap
     ethr =  7.19E-04,  avg # of iterations =  1.0

     total cpu time spent up to now is        6.4 secs

     total energy              =     -93.45146444 Ry
     Harris-Foulkes estimate   =     -93.46525638 Ry
     estimated scf accuracy    <       0.05695542 Ry

     iteration #  2     ecut=    50.00 Ry     beta=0.70
     Davidson diagonalization with overlap
     ethr =  7.12E-04,  avg # of iterations =  1.0

     total cpu time spent up to now is        8.2 secs

     total energy              =     -93.45359393 Ry
     Harris-Foulkes estimate   =     -93.45372643 Ry
     estimated scf accuracy    <       0.00243482 Ry

     iteration #  3     ecut=    50.00 Ry     beta=0.70
     Davidson diagonalization with overlap
     ethr =  3.04E-05,  avg # of iterations =  2.1

     total cpu time spent up to now is       10.4 secs

     total energy              =     -93.45389434 Ry
     Harris-Foulkes estimate   =     -93.45391388 Ry
     estimated scf accuracy    <       0.00005467 Ry

     iteration #  4     ecut=    50.00 Ry     beta=0.70
     Davidson diagonalization with overlap
     ethr =  6.83E-07,  avg # of iterations =  2.9

     total cpu time spent up to now is       13.1 secs

     total energy              =     -93.45392063 Ry
     Harris-Foulkes estimate   =     -93.45392189 Ry
     estimated scf accuracy    <       0.00000332 Ry

     iteration #  5     ecut=    50.00 Ry     beta=0.70
     Davidson diagonalization with overlap
     ethr =  4.14E-08,  avg # of iterations =  2.5

     total cpu time spent up to now is       15.5 secs

     End of self-consistent calculation

          k = 0.0000 0.0000 0.0000 (  1639 PWs)   bands (ev):

    -5.7537   6.2179   6.2179   6.2179

          k =-0.1000 0.1000-0.1000 (  1606 PWs)   bands (ev):

    -5.6226   5.0715   6.0193   6.0193

          k =-0.2000 0.2000-0.2000 (  1606 PWs)   bands (ev):

    -5.2355   3.2072   5.6380   5.6380

          k =-0.3000 0.3000-0.3000 (  1615 PWs)   bands (ev):

    -4.6191   1.4193   5.3025   5.3025

          k =-0.4000 0.4000-0.4000 (  1616 PWs)   bands (ev):

    -3.8709  -0.0586   5.0898   5.0898

          k = 0.5000-0.5000 0.5000 (  1622 PWs)   bands (ev):

    -3.4185  -0.7576   5.0180   5.0180

          k = 0.0000 0.2000 0.0000 (  1599 PWs)   bands (ev):

    -5.5786   5.2788   5.6408   5.6408

          k =-0.1000 0.3000-0.1000 (  1609 PWs)   bands (ev):

    -5.2756   3.7650   5.2052   5.3768

          k =-0.2000 0.4000-0.2000 (  1607 PWs)   bands (ev):

    -4.7312   2.0028   4.8858   4.9429

          k =-0.3000 0.5000-0.3000 (  1610 PWs)   bands (ev):

    -4.0060   0.4277   4.5307   4.7381

          k = 0.6000-0.4000 0.6000 (  1609 PWs)   bands (ev):

    -3.3641  -0.6110   4.2399   4.7712

          k = 0.5000-0.3000 0.5000 (  1612 PWs)   bands (ev):

    -3.5317  -0.3618   4.1112   4.9713

          k = 0.4000-0.2000 0.4000 (  1616 PWs)   bands (ev):

    -4.2620   0.9222   4.1711   5.3065

          k = 0.3000-0.1000 0.3000 (  1600 PWs)   bands (ev):

    -4.9389   2.5735   4.4466   5.7134

          k = 0.2000 0.0000 0.2000 (  1592 PWs)   bands (ev):

    -5.4057   4.1860   5.0564   6.0411

          k = 0.0000 0.4000 0.0000 (  1607 PWs)   bands (ev):

    -5.0572   3.5933   4.7284   4.7284

          k =-0.1000 0.5000-0.1000 (  1612 PWs)   bands (ev):

    -4.5907   2.3454   4.2206   4.3797

          k =-0.2000 0.6000-0.2000 (  1619 PWs)   bands (ev):

    -3.9143   0.9064   3.5917   4.2197

          k = 0.7000-0.3000 0.7000 (  1606 PWs)   bands (ev):

    -3.1820  -0.2798   3.0813   4.2638

          k = 0.6000-0.2000 0.6000 (  1596 PWs)   bands (ev):

    -3.0287  -0.4886   2.7822   4.5024

          k = 0.5000-0.1000 0.5000 (  1610 PWs)   bands (ev):

    -3.6837   0.5000   2.7613   4.9005

          k = 0.4000 0.0000 0.4000 (  1610 PWs)   bands (ev):

    -4.4028   1.7399   3.2146   5.3716

          k = 0.0000 0.6000 0.0000 (  1620 PWs)   bands (ev):

    -4.2021   1.8004   3.9862   3.9862

          k =-0.1000 0.7000-0.1000 (  1625 PWs)   bands (ev):

    -3.5884   0.7938   3.3592   3.7811

          k = 0.8000-0.2000 0.8000 (  1619 PWs)   bands (ev):

    -2.8369  -0.2135   2.5292   3.7877

          k = 0.7000-0.1000 0.7000 (  1617 PWs)   bands (ev):

    -2.4168  -0.6901   1.9749   4.0036

          k = 0.6000-0.0000 0.6000 (  1608 PWs)   bands (ev):

    -2.9562  -0.0998   1.9488   4.4005

          k = 0.0000 0.8000 0.0000 (  1624 PWs)   bands (ev):

    -3.0376   0.0367   3.5206   3.5206

          k = 0.9000-0.1000 0.9000 (  1623 PWs)   bands (ev):

    -2.3076  -0.8046   2.9339   3.4720

          k = 0.8000 0.0000 0.8000 (  1622 PWs)   bands (ev):

    -1.8309  -1.2256   2.1496   3.6395

          k = 0.0000-1.0000 0.0000 (  1604 PWs)   bands (ev):

    -1.6039  -1.6039   3.3629   3.3629

          k =-0.2000 0.4000 0.0000 (  1613 PWs)   bands (ev):

    -4.8916   2.8423   4.1351   5.2459

          k =-0.3000 0.5000-0.1000 (  1609 PWs)   bands (ev):

    -4.2792   1.4320   3.5461   4.8701

          k = 0.6000-0.4000 0.8000 (  1614 PWs)   bands (ev):

    -3.5311   0.0674   3.3148   4.5194

          k = 0.5000-0.3000 0.7000 (  1608 PWs)   bands (ev):

    -3.0712  -0.6114   3.2551   4.3813

          k =-0.2000 0.6000 0.0000 (  1617 PWs)   bands (ev):

    -4.0522   1.4438   3.4076   4.1306

          k = 0.7000-0.3000 0.9000 (  1617 PWs)   bands (ev):

    -3.3308   0.3409   2.7885   3.8013

          k = 0.6000-0.2000 0.8000 (  1613 PWs)   bands (ev):

    -2.6796  -0.5232   2.3797   3.7456

          k = 0.5000-0.1000 0.7000 (  1613 PWs)   bands (ev):

    -2.8814  -0.2634   2.2288   3.9860

          k = 0.4000 0.0000 0.6000 (  1607 PWs)   bands (ev):

    -3.6181   0.6871   2.5294   4.4268

          k = 0.8000-0.2000 1.0000 (  1621 PWs)   bands (ev):

    -2.9191  -0.0489   2.9961   3.3228

          k = 0.7000-0.1000 0.9000 (  1625 PWs)   bands (ev):

    -2.1796  -0.8243   2.2933   3.2320

          k = 0.6000 0.0000 0.8000 (  1614 PWs)   bands (ev):

    -2.1850  -0.7978   1.8768   3.5021

          k =-0.2000-1.0000 0.0000 (  1624 PWs)   bands (ev):

    -1.5506  -1.5506   2.9532   2.9532

          k = 0.6000-0.2000 1.0000 (  1616 PWs)   bands (ev):

    -2.5976  -0.3471   2.2346   3.2228

          k = 0.5000-0.1000 0.9000 (  1608 PWs)   bands (ev):

    -2.0857  -0.8569   2.0767   2.9713

          k =-0.4000-1.0000 0.0000 (  1622 PWs)   bands (ev):

    -1.4567  -1.4567   2.4391   2.4391

     highest occupied level (ev):     6.2179

!    total energy              =     -93.45392155 Ry
     Harris-Foulkes estimate   =     -93.45392163 Ry
     estimated scf accuracy    <       0.00000008 Ry

     total all-electron energy =     -1160.145658 Ry

     The total energy is the sum of the following terms:

     one-electron contribution =       5.74089988 Ry
     hartree contribution      =       1.09703393 Ry
     xc contribution           =     -12.25633133 Ry
     ewald contribution        =     -16.80092961 Ry
     one-center paw contrib.   =     -71.23459442 Ry

     convergence has been achieved in   5 iterations

     Forces acting on atoms (Ry/au):

     atom    1 type  1   force =    -0.00000000   -0.00000000   -0.00000000
     atom    2 type  1   force =     0.00000000    0.00000000    0.00000000

     Total force =     0.000000     Total SCF correction =     0.000000


     entering subroutine stress ...

          total   stress  (Ry/bohr**3)                   (kbar)     P=   18.85
   0.00012815   0.00000000   0.00000000         18.85      0.00      0.00
   0.00000000   0.00012815   0.00000000          0.00     18.85      0.00
  -0.00000000   0.00000000   0.00012815         -0.00      0.00     18.85


     Writing output data file pwscf.save
 
     init_run     :      1.97s CPU      1.99s WALL (       1 calls)
     electrons    :     13.15s CPU     13.24s WALL (       1 calls)
     forces       :      0.19s CPU      0.19s WALL (       1 calls)
     stress       :      0.64s CPU      0.64s WALL (       1 calls)

     Called by init_run:
     wfcinit      :      1.21s CPU      1.23s WALL (       1 calls)
     potinit      :      0.21s CPU      0.22s WALL (       1 calls)

     Called by electrons:
     c_bands      :      9.84s CPU      9.91s WALL (       6 calls)
     sum_band     :      2.13s CPU      2.14s WALL (       6 calls)
     v_of_rho     :      0.30s CPU      0.30s WALL (       6 calls)
     newd         :      0.13s CPU      0.13s WALL (       6 calls)
     mix_rho      :      0.02s CPU      0.02s WALL (       6 calls)

     Called by c_bands:
     init_us_2    :      0.35s CPU      0.40s WALL (     705 calls)
     cegterg      :      9.16s CPU      9.22s WALL (     282 calls)

     Called by *egterg:
     h_psi        :      9.59s CPU      9.64s WALL (     872 calls)
     s_psi        :      0.16s CPU      0.17s WALL (     872 calls)
     g_psi        :      0.08s CPU      0.07s WALL (     543 calls)
     cdiaghg      :      0.07s CPU      0.07s WALL (     778 calls)

     Called by h_psi:
     add_vuspsi   :      0.18s CPU      0.17s WALL (     872 calls)

     General routines
     calbec       :      0.23s CPU      0.25s WALL (    1248 calls)
     fft          :      0.20s CPU      0.21s WALL (     105 calls)
     fftw         :      9.83s CPU      9.89s WALL (    7802 calls)
     davcio       :      0.00s CPU      0.00s WALL (      47 calls)
 
     Parallel routines
     fft_scatter  :      0.66s CPU      0.69s WALL (    7907 calls)

     PAW routines
     PAW_pot      :      0.95s CPU      0.95s WALL (       6 calls)
     PAW_symme    :      0.00s CPU      0.00s WALL (      12 calls)
 
     PWSCF        :    16.43s CPU        16.66s WALL

 
   This run was terminated on:  20:24:43  28Apr2015            

=------------------------------------------------------------------------------=
   JOB DONE.
=------------------------------------------------------------------------------=
