
     Program PWSCF v.5.1 starts on 28Apr2015 at 20:17:34 

     This program is part of the open-source Quantum ESPRESSO suite
     for quantum simulation of materials; please cite
         "P. Giannozzi et al., J. Phys.:Condens. Matter 21 395502 (2009);
          URL http://www.quantum-espresso.org", 
     in publications or presentations arising from this work. More details at
     http://www.quantum-espresso.org/quote

     Parallel version (MPI), running on     1 processors
     Waiting for input...
     Reading input from standard input
Warning: card &IONS ignored
Warning: card / ignored
Warning: card &CELL ignored
Warning: card / ignored

     Current dimensions of program PWSCF are:
     Max number of different atomic species (ntypx) = 10
     Max number of k-points (npk) =  40000
     Max angular momentum in pseudopotentials (lmaxx) =  3
               file Si.pbe-n-kjpaw_psl.0.1.UPF: wavefunction(s)  3S renormalized

     Subspace diagonalization in iterative solution of the eigenvalue problem:
     a serial algorithm will be used

 
     G-vector sticks info
     --------------------
     sticks:   dense  smooth     PW     G-vecs:    dense   smooth      PW
     Sum         859     859    253                16865    16865    2741
 


     bravais-lattice index     =            2
     lattice parameter (alat)  =      10.2600  a.u.
     unit-cell volume          =     270.0114 (a.u.)^3
     number of atoms/cell      =            2
     number of atomic types    =            1
     number of electrons       =         8.00
     number of Kohn-Sham states=            4
     kinetic-energy cutoff     =      60.0000  Ry
     charge density cutoff     =     240.0000  Ry
     convergence threshold     =      1.0E-06
     mixing beta               =       0.7000
     number of iterations used =            8  plain     mixing
     Exchange-correlation      =  SLA  PW   PBX  PBC ( 1  4  3  4 0)

     celldm(1)=  10.260000  celldm(2)=   0.000000  celldm(3)=   0.000000
     celldm(4)=   0.000000  celldm(5)=   0.000000  celldm(6)=   0.000000

     crystal axes: (cart. coord. in units of alat)
               a(1) = (  -0.500000   0.000000   0.500000 )  
               a(2) = (   0.000000   0.500000   0.500000 )  
               a(3) = (  -0.500000   0.500000   0.000000 )  

     reciprocal axes: (cart. coord. in units 2 pi/alat)
               b(1) = ( -1.000000 -1.000000  1.000000 )  
               b(2) = (  1.000000  1.000000  1.000000 )  
               b(3) = ( -1.000000  1.000000 -1.000000 )  


     PseudoPot. # 1 for Si read from file:
     ./Si.pbe-n-kjpaw_psl.0.1.UPF
     MD5 check sum: b9d333a40e496bef61db012f150758bf
     Pseudo is Projector augmented-wave + core cor, Zval =  4.0
     Generated using "atomic" code by A. Dal Corso  v.5.0.2 svn rev. 9415
     Shape of augmentation charge: PSQ
     Using radial grid of 1141 points,  4 beta functions with: 
                l(1) =   0
                l(2) =   0
                l(3) =   1
                l(4) =   1
     Q(r) pseudized with 0 coefficients 


     atomic species   valence    mass     pseudopotential
        Si             4.00    28.05500     Si( 1.00)

     48 Sym. Ops., with inversion, found (24 have fractional translation)



   Cartesian axes

     site n.     atom                  positions (alat units)
         1           Si  tau(   1) = (   0.0000000   0.0000000   0.0000000  )
         2           Si  tau(   2) = (  -0.2500000   0.2500000   0.2500000  )

     number of k points=    20
                       cart. coord. in units 2pi/alat
        k(    1) = (   0.0000000   0.0000000   0.0000000), wk =   0.0058309
        k(    2) = (  -0.1428571   0.1428571  -0.1428571), wk =   0.0466472
        k(    3) = (  -0.2857143   0.2857143  -0.2857143), wk =   0.0466472
        k(    4) = (  -0.4285714   0.4285714  -0.4285714), wk =   0.0466472
        k(    5) = (   0.0000000   0.2857143   0.0000000), wk =   0.0349854
        k(    6) = (  -0.1428571   0.4285714  -0.1428571), wk =   0.1399417
        k(    7) = (  -0.2857143   0.5714286  -0.2857143), wk =   0.1399417
        k(    8) = (   0.5714286  -0.2857143   0.5714286), wk =   0.1399417
        k(    9) = (   0.4285714  -0.1428571   0.4285714), wk =   0.1399417
        k(   10) = (   0.2857143  -0.0000000   0.2857143), wk =   0.0699708
        k(   11) = (   0.0000000   0.5714286   0.0000000), wk =   0.0349854
        k(   12) = (  -0.1428571   0.7142857  -0.1428571), wk =   0.1399417
        k(   13) = (   0.7142857  -0.1428571   0.7142857), wk =   0.1399417
        k(   14) = (   0.5714286   0.0000000   0.5714286), wk =   0.0699708
        k(   15) = (   0.0000000   0.8571429   0.0000000), wk =   0.0349854
        k(   16) = (   0.8571429  -0.0000000   0.8571429), wk =   0.0699708
        k(   17) = (  -0.2857143   0.5714286   0.0000000), wk =   0.1399417
        k(   18) = (   0.5714286  -0.2857143   0.8571429), wk =   0.2798834
        k(   19) = (   0.7142857  -0.1428571   1.0000000), wk =   0.1399417
        k(   20) = (   0.5714286   0.0000000   0.8571429), wk =   0.1399417

     Dense  grid:    16865 G-vectors     FFT dimensions: (  36,  36,  36)

     Largest allocated arrays     est. size (Mb)     dimensions
        Kohn-Sham Wavefunctions         0.13 Mb     (    2136,    4)
        NL pseudopotentials             0.52 Mb     (    2136,   16)
        Each V/rho on FFT grid          0.71 Mb     (   46656)
        Each G-vector array             0.13 Mb     (   16865)
        G-vector shells                 0.00 Mb     (     214)
     Largest temporary arrays     est. size (Mb)     dimensions
        Auxiliary wavefunctions         0.52 Mb     (    2136,   16)
        Each subspace H/S matrix        0.00 Mb     (      16,   16)
        Each <psi_i|beta_j> matrix      0.00 Mb     (      16,    4)
        Arrays for rho mixing           5.70 Mb     (   46656,    8)

     Initial potential from superposition of free atoms

     starting charge    7.99888, renormalised to    8.00000
     Starting wfc are    8 randomized atomic wfcs
     Checking if some PAW data can be deallocated... 

     total cpu time spent up to now is        1.7 secs

     per-process dynamical memory:    15.0 Mb

     Self-consistent Calculation

     iteration #  1     ecut=    60.00 Ry     beta=0.70
     Davidson diagonalization with overlap
     ethr =  1.00E-02,  avg # of iterations =  2.0

     Threshold (ethr) on eigenvalues was too large:
     Diagonalizing with lowered threshold

     Davidson diagonalization with overlap
     ethr =  7.25E-04,  avg # of iterations =  1.0

     total cpu time spent up to now is        3.7 secs

     total energy              =     -93.45082295 Ry
     Harris-Foulkes estimate   =     -93.46476104 Ry
     estimated scf accuracy    <       0.05743320 Ry

     iteration #  2     ecut=    60.00 Ry     beta=0.70
     Davidson diagonalization with overlap
     ethr =  7.18E-04,  avg # of iterations =  1.0

     total cpu time spent up to now is        4.7 secs

     total energy              =     -93.45297411 Ry
     Harris-Foulkes estimate   =     -93.45310576 Ry
     estimated scf accuracy    <       0.00245128 Ry

     iteration #  3     ecut=    60.00 Ry     beta=0.70
     Davidson diagonalization with overlap
     ethr =  3.06E-05,  avg # of iterations =  1.9

     total cpu time spent up to now is        5.8 secs

     total energy              =     -93.45326207 Ry
     Harris-Foulkes estimate   =     -93.45328009 Ry
     estimated scf accuracy    <       0.00005419 Ry

     iteration #  4     ecut=    60.00 Ry     beta=0.70
     Davidson diagonalization with overlap
     ethr =  6.77E-07,  avg # of iterations =  2.9

     total cpu time spent up to now is        7.2 secs

     total energy              =     -93.45328832 Ry
     Harris-Foulkes estimate   =     -93.45328932 Ry
     estimated scf accuracy    <       0.00000267 Ry

     iteration #  5     ecut=    60.00 Ry     beta=0.70
     Davidson diagonalization with overlap
     ethr =  3.34E-08,  avg # of iterations =  2.8

     total cpu time spent up to now is        8.5 secs

     End of self-consistent calculation

          k = 0.0000 0.0000 0.0000 (  2085 PWs)   bands (ev):

    -5.7511   6.2212   6.2212   6.2212

          k =-0.1429 0.1429-0.1429 (  2106 PWs)   bands (ev):

    -5.4845   4.2876   5.8634   5.8634

          k =-0.2857 0.2857-0.2857 (  2115 PWs)   bands (ev):

    -4.7163   1.6638   5.3468   5.3468

          k =-0.4286 0.4286-0.4286 (  2111 PWs)   bands (ev):

    -3.6723  -0.3724   5.0577   5.0577

          k = 0.0000 0.2857 0.0000 (  2109 PWs)   bands (ev):

    -5.3944   4.5897   5.2466   5.2466

          k =-0.1429 0.4286-0.1429 (  2104 PWs)   bands (ev):

    -4.7861   2.4609   4.6646   4.7031

          k =-0.2857 0.5714-0.2857 (  2109 PWs)   bands (ev):

    -3.7743   0.2704   3.9749   4.5141

          k = 0.5714-0.2857 0.5714 (  2118 PWs)   bands (ev):

    -3.2129  -0.5974   3.5593   4.7128

          k = 0.4286-0.1429 0.4286 (  2114 PWs)   bands (ev):

    -4.1440   0.9526   3.5622   5.2285

          k = 0.2857-0.0000 0.2857 (  2111 PWs)   bands (ev):

    -5.0473   3.0820   4.2513   5.8233

          k = 0.0000 0.5714 0.0000 (  2113 PWs)   bands (ev):

    -4.3412   2.0601   4.0791   4.0791

          k =-0.1429 0.7143-0.1429 (  2122 PWs)   bands (ev):

    -3.4363   0.5535   3.0977   3.8188

          k = 0.7143-0.1429 0.7143 (  2136 PWs)   bands (ev):

    -2.5147  -0.6301   2.1418   3.9882

          k = 0.5714 0.0000 0.5714 (  2123 PWs)   bands (ev):

    -3.1675   0.1235   2.0667   4.5393

          k = 0.0000 0.8571 0.0000 (  2120 PWs)   bands (ev):

    -2.6503  -0.4456   3.4461   3.4461

          k = 0.8571-0.0000 0.8571 (  2127 PWs)   bands (ev):

    -1.6967  -1.4078   2.5483   3.5078

          k =-0.2857 0.5714 0.0000 (  2118 PWs)   bands (ev):

    -4.0316   1.3208   3.1006   4.4304

          k = 0.5714-0.2857 0.8571 (  2124 PWs)   bands (ev):

    -2.9860  -0.2165   2.5284   3.8911

          k = 0.7143-0.1429 1.0000 (  2128 PWs)   bands (ev):

    -2.4442  -0.5313   2.6156   3.0273

          k = 0.5714 0.0000 0.8571 (  2129 PWs)   bands (ev):

    -2.0050  -0.9299   1.9733   3.1198

     highest occupied level (ev):     6.2212

!    total energy              =     -93.45328926 Ry
     Harris-Foulkes estimate   =     -93.45328933 Ry
     estimated scf accuracy    <       0.00000009 Ry

     total all-electron energy =     -1160.145025 Ry

     The total energy is the sum of the following terms:

     one-electron contribution =       5.74052294 Ry
     hartree contribution      =       1.09892257 Ry
     xc contribution           =     -12.25720852 Ry
     ewald contribution        =     -16.80092958 Ry
     one-center paw contrib.   =     -71.23459667 Ry

     convergence has been achieved in   5 iterations

     Forces acting on atoms (Ry/au):

     atom    1 type  1   force =     0.00000000   -0.00000000   -0.00000000
     atom    2 type  1   force =    -0.00000000    0.00000000    0.00000000

     Total force =     0.000000     Total SCF correction =     0.000000


     entering subroutine stress ...

          total   stress  (Ry/bohr**3)                   (kbar)     P=   19.16
   0.00013028  -0.00000000  -0.00000000         19.16     -0.00     -0.00
  -0.00000000   0.00013028   0.00000000         -0.00     19.16      0.00
  -0.00000000   0.00000000   0.00013028         -0.00      0.00     19.16


     Writing output data file pwscf.save
 
     init_run     :      1.35s CPU      1.36s WALL (       1 calls)
     electrons    :      6.82s CPU      6.87s WALL (       1 calls)
     forces       :      0.16s CPU      0.16s WALL (       1 calls)
     stress       :      0.53s CPU      0.53s WALL (       1 calls)

     Called by init_run:
     wfcinit      :      0.54s CPU      0.55s WALL (       1 calls)
     potinit      :      0.22s CPU      0.22s WALL (       1 calls)

     Called by electrons:
     c_bands      :      4.52s CPU      4.55s WALL (       6 calls)
     sum_band     :      1.07s CPU      1.08s WALL (       6 calls)
     v_of_rho     :      0.31s CPU      0.31s WALL (       6 calls)
     newd         :      0.17s CPU      0.16s WALL (       6 calls)
     mix_rho      :      0.03s CPU      0.03s WALL (       6 calls)

     Called by c_bands:
     init_us_2    :      0.23s CPU      0.23s WALL (     300 calls)
     cegterg      :      4.14s CPU      4.17s WALL (     120 calls)

     Called by *egterg:
     h_psi        :      4.23s CPU      4.26s WALL (     372 calls)
     s_psi        :      0.11s CPU      0.10s WALL (     372 calls)
     g_psi        :      0.04s CPU      0.04s WALL (     232 calls)
     cdiaghg      :      0.03s CPU      0.03s WALL (     332 calls)

     Called by h_psi:
     add_vuspsi   :      0.10s CPU      0.10s WALL (     372 calls)

     General routines
     calbec       :      0.13s CPU      0.14s WALL (     532 calls)
     fft          :      0.22s CPU      0.22s WALL (     105 calls)
     fftw         :      4.30s CPU      4.30s WALL (    3338 calls)
     davcio       :      0.00s CPU      0.00s WALL (      20 calls)
 
     Parallel routines
     fft_scatter  :      0.33s CPU      0.32s WALL (    3443 calls)

     PAW routines
     PAW_pot      :      0.95s CPU      0.95s WALL (       6 calls)
     PAW_symme    :      0.01s CPU      0.00s WALL (      12 calls)
 
     PWSCF        :     9.28s CPU         9.40s WALL

 
   This run was terminated on:  20:17:43  28Apr2015            

=------------------------------------------------------------------------------=
   JOB DONE.
=------------------------------------------------------------------------------=
