
     Program PWSCF v.5.1 starts on 28Apr2015 at 20:14:44 

     This program is part of the open-source Quantum ESPRESSO suite
     for quantum simulation of materials; please cite
         "P. Giannozzi et al., J. Phys.:Condens. Matter 21 395502 (2009);
          URL http://www.quantum-espresso.org", 
     in publications or presentations arising from this work. More details at
     http://www.quantum-espresso.org/quote

     Parallel version (MPI), running on     1 processors
     Waiting for input...
     Reading input from standard input
Warning: card &IONS ignored
Warning: card / ignored
Warning: card &CELL ignored
Warning: card / ignored

     Current dimensions of program PWSCF are:
     Max number of different atomic species (ntypx) = 10
     Max number of k-points (npk) =  40000
     Max angular momentum in pseudopotentials (lmaxx) =  3
               file Si.pbe-n-kjpaw_psl.0.1.UPF: wavefunction(s)  3S renormalized

     Subspace diagonalization in iterative solution of the eigenvalue problem:
     a serial algorithm will be used

 
     G-vector sticks info
     --------------------
     sticks:   dense  smooth     PW     G-vecs:    dense   smooth      PW
     Sum         859     859    253                16865    16865    2733
 


     bravais-lattice index     =            2
     lattice parameter (alat)  =      10.2600  a.u.
     unit-cell volume          =     270.0114 (a.u.)^3
     number of atoms/cell      =            2
     number of atomic types    =            1
     number of electrons       =         8.00
     number of Kohn-Sham states=            4
     kinetic-energy cutoff     =      60.0000  Ry
     charge density cutoff     =     240.0000  Ry
     convergence threshold     =      1.0E-06
     mixing beta               =       0.7000
     number of iterations used =            8  plain     mixing
     Exchange-correlation      =  SLA  PW   PBX  PBC ( 1  4  3  4 0)

     celldm(1)=  10.260000  celldm(2)=   0.000000  celldm(3)=   0.000000
     celldm(4)=   0.000000  celldm(5)=   0.000000  celldm(6)=   0.000000

     crystal axes: (cart. coord. in units of alat)
               a(1) = (  -0.500000   0.000000   0.500000 )  
               a(2) = (   0.000000   0.500000   0.500000 )  
               a(3) = (  -0.500000   0.500000   0.000000 )  

     reciprocal axes: (cart. coord. in units 2 pi/alat)
               b(1) = ( -1.000000 -1.000000  1.000000 )  
               b(2) = (  1.000000  1.000000  1.000000 )  
               b(3) = ( -1.000000  1.000000 -1.000000 )  


     PseudoPot. # 1 for Si read from file:
     ./Si.pbe-n-kjpaw_psl.0.1.UPF
     MD5 check sum: b9d333a40e496bef61db012f150758bf
     Pseudo is Projector augmented-wave + core cor, Zval =  4.0
     Generated using "atomic" code by A. Dal Corso  v.5.0.2 svn rev. 9415
     Shape of augmentation charge: PSQ
     Using radial grid of 1141 points,  4 beta functions with: 
                l(1) =   0
                l(2) =   0
                l(3) =   1
                l(4) =   1
     Q(r) pseudized with 0 coefficients 


     atomic species   valence    mass     pseudopotential
        Si             4.00    28.05500     Si( 1.00)

     48 Sym. Ops., with inversion, found (24 have fractional translation)



   Cartesian axes

     site n.     atom                  positions (alat units)
         1           Si  tau(   1) = (   0.0000000   0.0000000   0.0000000  )
         2           Si  tau(   2) = (  -0.2500000   0.2500000   0.2500000  )

     number of k points=    10
                       cart. coord. in units 2pi/alat
        k(    1) = (   0.0000000   0.0000000   0.0000000), wk =   0.0160000
        k(    2) = (  -0.2000000   0.2000000  -0.2000000), wk =   0.1280000
        k(    3) = (  -0.4000000   0.4000000  -0.4000000), wk =   0.1280000
        k(    4) = (   0.0000000   0.4000000   0.0000000), wk =   0.0960000
        k(    5) = (  -0.2000000   0.6000000  -0.2000000), wk =   0.3840000
        k(    6) = (   0.6000000  -0.2000000   0.6000000), wk =   0.3840000
        k(    7) = (   0.4000000   0.0000000   0.4000000), wk =   0.1920000
        k(    8) = (   0.0000000   0.8000000   0.0000000), wk =   0.0960000
        k(    9) = (   0.8000000   0.0000000   0.8000000), wk =   0.1920000
        k(   10) = (   0.6000000  -0.2000000   1.0000000), wk =   0.3840000

     Dense  grid:    16865 G-vectors     FFT dimensions: (  36,  36,  36)

     Largest allocated arrays     est. size (Mb)     dimensions
        Kohn-Sham Wavefunctions         0.13 Mb     (    2143,    4)
        NL pseudopotentials             0.52 Mb     (    2143,   16)
        Each V/rho on FFT grid          0.71 Mb     (   46656)
        Each G-vector array             0.13 Mb     (   16865)
        G-vector shells                 0.00 Mb     (     214)
     Largest temporary arrays     est. size (Mb)     dimensions
        Auxiliary wavefunctions         0.52 Mb     (    2143,   16)
        Each subspace H/S matrix        0.00 Mb     (      16,   16)
        Each <psi_i|beta_j> matrix      0.00 Mb     (      16,    4)
        Arrays for rho mixing           5.70 Mb     (   46656,    8)

     Initial potential from superposition of free atoms

     starting charge    7.99888, renormalised to    8.00000
     Starting wfc are    8 randomized atomic wfcs
     Checking if some PAW data can be deallocated... 

     total cpu time spent up to now is        1.4 secs

     per-process dynamical memory:    14.7 Mb

     Self-consistent Calculation

     iteration #  1     ecut=    60.00 Ry     beta=0.70
     Davidson diagonalization with overlap
     ethr =  1.00E-02,  avg # of iterations =  2.0

     Threshold (ethr) on eigenvalues was too large:
     Diagonalizing with lowered threshold

     Davidson diagonalization with overlap
     ethr =  7.49E-04,  avg # of iterations =  1.0

     total cpu time spent up to now is        2.6 secs

     total energy              =     -93.44677781 Ry
     Harris-Foulkes estimate   =     -93.46124333 Ry
     estimated scf accuracy    <       0.05928515 Ry

     iteration #  2     ecut=    60.00 Ry     beta=0.70
     Davidson diagonalization with overlap
     ethr =  7.41E-04,  avg # of iterations =  1.0

     total cpu time spent up to now is        3.2 secs

     total energy              =     -93.44894959 Ry
     Harris-Foulkes estimate   =     -93.44908678 Ry
     estimated scf accuracy    <       0.00256560 Ry

     iteration #  3     ecut=    60.00 Ry     beta=0.70
     Davidson diagonalization with overlap
     ethr =  3.21E-05,  avg # of iterations =  1.7

     total cpu time spent up to now is        3.9 secs

     total energy              =     -93.44920572 Ry
     Harris-Foulkes estimate   =     -93.44921950 Ry
     estimated scf accuracy    <       0.00005285 Ry

     iteration #  4     ecut=    60.00 Ry     beta=0.70
     Davidson diagonalization with overlap
     ethr =  6.61E-07,  avg # of iterations =  3.1

     total cpu time spent up to now is        4.8 secs

     total energy              =     -93.44923806 Ry
     Harris-Foulkes estimate   =     -93.44923836 Ry
     estimated scf accuracy    <       0.00000103 Ry

     iteration #  5     ecut=    60.00 Ry     beta=0.70
     Davidson diagonalization with overlap
     ethr =  1.29E-08,  avg # of iterations =  3.2

     total cpu time spent up to now is        5.6 secs

     End of self-consistent calculation

          k = 0.0000 0.0000 0.0000 (  2085 PWs)   bands (ev):

    -5.7394   6.2360   6.2360   6.2360

          k =-0.2000 0.2000-0.2000 (  2100 PWs)   bands (ev):

    -5.2210   3.2228   5.6547   5.6547

          k =-0.4000 0.4000-0.4000 (  2117 PWs)   bands (ev):

    -3.8557  -0.0445   5.1060   5.1060

          k = 0.0000 0.4000 0.0000 (  2093 PWs)   bands (ev):

    -5.0426   3.6110   4.7434   4.7434

          k =-0.2000 0.6000-0.2000 (  2112 PWs)   bands (ev):

    -3.8993   0.9221   3.6061   4.2344

          k = 0.6000-0.2000 0.6000 (  2113 PWs)   bands (ev):

    -3.0129  -0.4740   2.7960   4.5176

          k = 0.4000 0.0000 0.4000 (  2109 PWs)   bands (ev):

    -4.3880   1.7561   3.2278   5.3882

          k = 0.0000 0.8000 0.0000 (  2112 PWs)   bands (ev):

    -3.0223   0.0532   3.5346   3.5346

          k = 0.8000 0.0000 0.8000 (  2139 PWs)   bands (ev):

    -1.8148  -1.2097   2.1618   3.6536

          k = 0.6000-0.2000 1.0000 (  2143 PWs)   bands (ev):

    -2.5820  -0.3308   2.2470   3.2359

     highest occupied level (ev):     6.2360

!    total energy              =     -93.44923862 Ry
     Harris-Foulkes estimate   =     -93.44923866 Ry
     estimated scf accuracy    <       0.00000004 Ry

     total all-electron energy =     -1160.140975 Ry

     The total energy is the sum of the following terms:

     one-electron contribution =       5.74055182 Ry
     hartree contribution      =       1.10721349 Ry
     xc contribution           =     -12.26129592 Ry
     ewald contribution        =     -16.80092958 Ry
     one-center paw contrib.   =     -71.23477843 Ry

     convergence has been achieved in   5 iterations

     Forces acting on atoms (Ry/au):

     atom    1 type  1   force =     0.00000000    0.00000000   -0.00000000
     atom    2 type  1   force =    -0.00000000   -0.00000000    0.00000000

     Total force =     0.000000     Total SCF correction =     0.000000


     entering subroutine stress ...

          total   stress  (Ry/bohr**3)                   (kbar)     P=   21.10
   0.00014347   0.00000000   0.00000000         21.10      0.00      0.00
   0.00000000   0.00014347   0.00000000          0.00     21.10      0.00
   0.00000000   0.00000000   0.00014347          0.00      0.00     21.10


     Writing output data file pwscf.save
 
     init_run     :      1.07s CPU      1.08s WALL (       1 calls)
     electrons    :      4.20s CPU      4.22s WALL (       1 calls)
     forces       :      0.14s CPU      0.14s WALL (       1 calls)
     stress       :      0.42s CPU      0.42s WALL (       1 calls)

     Called by init_run:
     wfcinit      :      0.27s CPU      0.27s WALL (       1 calls)
     potinit      :      0.22s CPU      0.22s WALL (       1 calls)

     Called by electrons:
     c_bands      :      2.32s CPU      2.33s WALL (       6 calls)
     sum_band     :      0.65s CPU      0.65s WALL (       6 calls)
     v_of_rho     :      0.31s CPU      0.31s WALL (       6 calls)
     newd         :      0.16s CPU      0.16s WALL (       6 calls)
     mix_rho      :      0.03s CPU      0.03s WALL (       6 calls)

     Called by c_bands:
     init_us_2    :      0.11s CPU      0.11s WALL (     150 calls)
     cegterg      :      2.14s CPU      2.14s WALL (      60 calls)

     Called by *egterg:
     h_psi        :      2.17s CPU      2.18s WALL (     190 calls)
     s_psi        :      0.06s CPU      0.05s WALL (     190 calls)
     g_psi        :      0.03s CPU      0.02s WALL (     120 calls)
     cdiaghg      :      0.02s CPU      0.02s WALL (     170 calls)

     Called by h_psi:
     add_vuspsi   :      0.05s CPU      0.05s WALL (     190 calls)

     General routines
     calbec       :      0.06s CPU      0.07s WALL (     270 calls)
     fft          :      0.22s CPU      0.22s WALL (     105 calls)
     fftw         :      2.20s CPU      2.20s WALL (    1696 calls)
     davcio       :      0.00s CPU      0.00s WALL (      10 calls)
 
     Parallel routines
     fft_scatter  :      0.16s CPU      0.17s WALL (    1801 calls)

     PAW routines
     PAW_pot      :      0.95s CPU      0.95s WALL (       6 calls)
     PAW_symme    :      0.00s CPU      0.00s WALL (      12 calls)
 
     PWSCF        :     6.22s CPU         6.30s WALL

 
   This run was terminated on:  20:14:50  28Apr2015            

=------------------------------------------------------------------------------=
   JOB DONE.
=------------------------------------------------------------------------------=
