
     Program PWSCF v.5.1 starts on 28Apr2015 at 20:25: 2 

     This program is part of the open-source Quantum ESPRESSO suite
     for quantum simulation of materials; please cite
         "P. Giannozzi et al., J. Phys.:Condens. Matter 21 395502 (2009);
          URL http://www.quantum-espresso.org", 
     in publications or presentations arising from this work. More details at
     http://www.quantum-espresso.org/quote

     Parallel version (MPI), running on     1 processors
     Waiting for input...
     Reading input from standard input
Warning: card &IONS ignored
Warning: card / ignored
Warning: card &CELL ignored
Warning: card / ignored

     Current dimensions of program PWSCF are:
     Max number of different atomic species (ntypx) = 10
     Max number of k-points (npk) =  40000
     Max angular momentum in pseudopotentials (lmaxx) =  3
               file Si.pbe-n-kjpaw_psl.0.1.UPF: wavefunction(s)  3S renormalized

     Subspace diagonalization in iterative solution of the eigenvalue problem:
     a serial algorithm will be used

 
     G-vector sticks info
     --------------------
     sticks:   dense  smooth     PW     G-vecs:    dense   smooth      PW
     Sum        1027    1027    301                21331    21331    3479
 


     bravais-lattice index     =            2
     lattice parameter (alat)  =      10.2600  a.u.
     unit-cell volume          =     270.0114 (a.u.)^3
     number of atoms/cell      =            2
     number of atomic types    =            1
     number of electrons       =         8.00
     number of Kohn-Sham states=            4
     kinetic-energy cutoff     =      70.0000  Ry
     charge density cutoff     =     280.0000  Ry
     convergence threshold     =      1.0E-06
     mixing beta               =       0.7000
     number of iterations used =            8  plain     mixing
     Exchange-correlation      =  SLA  PW   PBX  PBC ( 1  4  3  4 0)

     celldm(1)=  10.260000  celldm(2)=   0.000000  celldm(3)=   0.000000
     celldm(4)=   0.000000  celldm(5)=   0.000000  celldm(6)=   0.000000

     crystal axes: (cart. coord. in units of alat)
               a(1) = (  -0.500000   0.000000   0.500000 )  
               a(2) = (   0.000000   0.500000   0.500000 )  
               a(3) = (  -0.500000   0.500000   0.000000 )  

     reciprocal axes: (cart. coord. in units 2 pi/alat)
               b(1) = ( -1.000000 -1.000000  1.000000 )  
               b(2) = (  1.000000  1.000000  1.000000 )  
               b(3) = ( -1.000000  1.000000 -1.000000 )  


     PseudoPot. # 1 for Si read from file:
     ./Si.pbe-n-kjpaw_psl.0.1.UPF
     MD5 check sum: b9d333a40e496bef61db012f150758bf
     Pseudo is Projector augmented-wave + core cor, Zval =  4.0
     Generated using "atomic" code by A. Dal Corso  v.5.0.2 svn rev. 9415
     Shape of augmentation charge: PSQ
     Using radial grid of 1141 points,  4 beta functions with: 
                l(1) =   0
                l(2) =   0
                l(3) =   1
                l(4) =   1
     Q(r) pseudized with 0 coefficients 


     atomic species   valence    mass     pseudopotential
        Si             4.00    28.05500     Si( 1.00)

     48 Sym. Ops., with inversion, found (24 have fractional translation)



   Cartesian axes

     site n.     atom                  positions (alat units)
         1           Si  tau(   1) = (   0.0000000   0.0000000   0.0000000  )
         2           Si  tau(   2) = (  -0.2500000   0.2500000   0.2500000  )

     number of k points=    47
                       cart. coord. in units 2pi/alat
        k(    1) = (   0.0000000   0.0000000   0.0000000), wk =   0.0020000
        k(    2) = (  -0.1000000   0.1000000  -0.1000000), wk =   0.0160000
        k(    3) = (  -0.2000000   0.2000000  -0.2000000), wk =   0.0160000
        k(    4) = (  -0.3000000   0.3000000  -0.3000000), wk =   0.0160000
        k(    5) = (  -0.4000000   0.4000000  -0.4000000), wk =   0.0160000
        k(    6) = (   0.5000000  -0.5000000   0.5000000), wk =   0.0080000
        k(    7) = (   0.0000000   0.2000000   0.0000000), wk =   0.0120000
        k(    8) = (  -0.1000000   0.3000000  -0.1000000), wk =   0.0480000
        k(    9) = (  -0.2000000   0.4000000  -0.2000000), wk =   0.0480000
        k(   10) = (  -0.3000000   0.5000000  -0.3000000), wk =   0.0480000
        k(   11) = (   0.6000000  -0.4000000   0.6000000), wk =   0.0480000
        k(   12) = (   0.5000000  -0.3000000   0.5000000), wk =   0.0480000
        k(   13) = (   0.4000000  -0.2000000   0.4000000), wk =   0.0480000
        k(   14) = (   0.3000000  -0.1000000   0.3000000), wk =   0.0480000
        k(   15) = (   0.2000000   0.0000000   0.2000000), wk =   0.0240000
        k(   16) = (   0.0000000   0.4000000   0.0000000), wk =   0.0120000
        k(   17) = (  -0.1000000   0.5000000  -0.1000000), wk =   0.0480000
        k(   18) = (  -0.2000000   0.6000000  -0.2000000), wk =   0.0480000
        k(   19) = (   0.7000000  -0.3000000   0.7000000), wk =   0.0480000
        k(   20) = (   0.6000000  -0.2000000   0.6000000), wk =   0.0480000
        k(   21) = (   0.5000000  -0.1000000   0.5000000), wk =   0.0480000
        k(   22) = (   0.4000000   0.0000000   0.4000000), wk =   0.0240000
        k(   23) = (   0.0000000   0.6000000   0.0000000), wk =   0.0120000
        k(   24) = (  -0.1000000   0.7000000  -0.1000000), wk =   0.0480000
        k(   25) = (   0.8000000  -0.2000000   0.8000000), wk =   0.0480000
        k(   26) = (   0.7000000  -0.1000000   0.7000000), wk =   0.0480000
        k(   27) = (   0.6000000  -0.0000000   0.6000000), wk =   0.0240000
        k(   28) = (   0.0000000   0.8000000   0.0000000), wk =   0.0120000
        k(   29) = (   0.9000000  -0.1000000   0.9000000), wk =   0.0480000
        k(   30) = (   0.8000000   0.0000000   0.8000000), wk =   0.0240000
        k(   31) = (   0.0000000  -1.0000000   0.0000000), wk =   0.0060000
        k(   32) = (  -0.2000000   0.4000000   0.0000000), wk =   0.0480000
        k(   33) = (  -0.3000000   0.5000000  -0.1000000), wk =   0.0960000
        k(   34) = (   0.6000000  -0.4000000   0.8000000), wk =   0.0960000
        k(   35) = (   0.5000000  -0.3000000   0.7000000), wk =   0.0480000
        k(   36) = (  -0.2000000   0.6000000   0.0000000), wk =   0.0480000
        k(   37) = (   0.7000000  -0.3000000   0.9000000), wk =   0.0960000
        k(   38) = (   0.6000000  -0.2000000   0.8000000), wk =   0.0960000
        k(   39) = (   0.5000000  -0.1000000   0.7000000), wk =   0.0960000
        k(   40) = (   0.4000000   0.0000000   0.6000000), wk =   0.0480000
        k(   41) = (   0.8000000  -0.2000000   1.0000000), wk =   0.0480000
        k(   42) = (   0.7000000  -0.1000000   0.9000000), wk =   0.0960000
        k(   43) = (   0.6000000   0.0000000   0.8000000), wk =   0.0480000
        k(   44) = (  -0.2000000  -1.0000000   0.0000000), wk =   0.0240000
        k(   45) = (   0.6000000  -0.2000000   1.0000000), wk =   0.0480000
        k(   46) = (   0.5000000  -0.1000000   0.9000000), wk =   0.0480000
        k(   47) = (  -0.4000000  -1.0000000   0.0000000), wk =   0.0240000

     Dense  grid:    21331 G-vectors     FFT dimensions: (  40,  40,  40)

     Largest allocated arrays     est. size (Mb)     dimensions
        Kohn-Sham Wavefunctions         0.16 Mb     (    2701,    4)
        NL pseudopotentials             0.66 Mb     (    2701,   16)
        Each V/rho on FFT grid          0.98 Mb     (   64000)
        Each G-vector array             0.16 Mb     (   21331)
        G-vector shells                 0.00 Mb     (     251)
     Largest temporary arrays     est. size (Mb)     dimensions
        Auxiliary wavefunctions         0.66 Mb     (    2701,   16)
        Each subspace H/S matrix        0.00 Mb     (      16,   16)
        Each <psi_i|beta_j> matrix      0.00 Mb     (      16,    4)
        Arrays for rho mixing           7.81 Mb     (   64000,    8)

     Initial potential from superposition of free atoms

     starting charge    7.99888, renormalised to    8.00000
     Starting wfc are    8 randomized atomic wfcs
     Checking if some PAW data can be deallocated... 

     total cpu time spent up to now is        3.0 secs

     per-process dynamical memory:    22.9 Mb

     Self-consistent Calculation

     iteration #  1     ecut=    70.00 Ry     beta=0.70
     Davidson diagonalization with overlap
     ethr =  1.00E-02,  avg # of iterations =  2.0

     Threshold (ethr) on eigenvalues was too large:
     Diagonalizing with lowered threshold

     Davidson diagonalization with overlap
     ethr =  7.19E-04,  avg # of iterations =  1.0

     total cpu time spent up to now is        8.9 secs

     total energy              =     -93.45148540 Ry
     Harris-Foulkes estimate   =     -93.46527590 Ry
     estimated scf accuracy    <       0.05692677 Ry

     iteration #  2     ecut=    70.00 Ry     beta=0.70
     Davidson diagonalization with overlap
     ethr =  7.12E-04,  avg # of iterations =  1.0

     total cpu time spent up to now is       11.6 secs

     total energy              =     -93.45361016 Ry
     Harris-Foulkes estimate   =     -93.45374290 Ry
     estimated scf accuracy    <       0.00243718 Ry

     iteration #  3     ecut=    70.00 Ry     beta=0.70
     Davidson diagonalization with overlap
     ethr =  3.05E-05,  avg # of iterations =  2.1

     total cpu time spent up to now is       14.7 secs

     total energy              =     -93.45390557 Ry
     Harris-Foulkes estimate   =     -93.45392491 Ry
     estimated scf accuracy    <       0.00005467 Ry

     iteration #  4     ecut=    70.00 Ry     beta=0.70
     Davidson diagonalization with overlap
     ethr =  6.83E-07,  avg # of iterations =  3.0

     total cpu time spent up to now is       18.6 secs

     total energy              =     -93.45393235 Ry
     Harris-Foulkes estimate   =     -93.45393355 Ry
     estimated scf accuracy    <       0.00000315 Ry

     iteration #  5     ecut=    70.00 Ry     beta=0.70
     Davidson diagonalization with overlap
     ethr =  3.93E-08,  avg # of iterations =  2.5

     total cpu time spent up to now is       22.2 secs

     End of self-consistent calculation

          k = 0.0000 0.0000 0.0000 (  2685 PWs)   bands (ev):

    -5.7538   6.2177   6.2177   6.2177

          k =-0.1000 0.1000-0.1000 (  2697 PWs)   bands (ev):

    -5.6227   5.0713   6.0191   6.0191

          k =-0.2000 0.2000-0.2000 (  2677 PWs)   bands (ev):

    -5.2356   3.2070   5.6378   5.6378

          k =-0.3000 0.3000-0.3000 (  2668 PWs)   bands (ev):

    -4.6193   1.4191   5.3024   5.3024

          k =-0.4000 0.4000-0.4000 (  2656 PWs)   bands (ev):

    -3.8710  -0.0587   5.0897   5.0897

          k = 0.5000-0.5000 0.5000 (  2638 PWs)   bands (ev):

    -3.4187  -0.7577   5.0179   5.0179

          k = 0.0000 0.2000 0.0000 (  2701 PWs)   bands (ev):

    -5.5787   5.2786   5.6407   5.6407

          k =-0.1000 0.3000-0.1000 (  2685 PWs)   bands (ev):

    -5.2758   3.7649   5.2051   5.3766

          k =-0.2000 0.4000-0.2000 (  2681 PWs)   bands (ev):

    -4.7313   2.0026   4.8856   4.9427

          k =-0.3000 0.5000-0.3000 (  2673 PWs)   bands (ev):

    -4.0062   0.4276   4.5305   4.7380

          k = 0.6000-0.4000 0.6000 (  2670 PWs)   bands (ev):

    -3.3642  -0.6111   4.2397   4.7710

          k = 0.5000-0.3000 0.5000 (  2673 PWs)   bands (ev):

    -3.5318  -0.3619   4.1111   4.9711

          k = 0.4000-0.2000 0.4000 (  2661 PWs)   bands (ev):

    -4.2621   0.9221   4.1709   5.3063

          k = 0.3000-0.1000 0.3000 (  2674 PWs)   bands (ev):

    -4.9391   2.5733   4.4464   5.7132

          k = 0.2000 0.0000 0.2000 (  2685 PWs)   bands (ev):

    -5.4058   4.1859   5.0563   6.0409

          k = 0.0000 0.4000 0.0000 (  2694 PWs)   bands (ev):

    -5.0573   3.5931   4.7282   4.7282

          k =-0.1000 0.5000-0.1000 (  2664 PWs)   bands (ev):

    -4.5909   2.3452   4.2205   4.3795

          k =-0.2000 0.6000-0.2000 (  2668 PWs)   bands (ev):

    -3.9145   0.9062   3.5916   4.2196

          k = 0.7000-0.3000 0.7000 (  2664 PWs)   bands (ev):

    -3.1821  -0.2799   3.0812   4.2636

          k = 0.6000-0.2000 0.6000 (  2681 PWs)   bands (ev):

    -3.0288  -0.4887   2.7821   4.5023

          k = 0.5000-0.1000 0.5000 (  2675 PWs)   bands (ev):

    -3.6839   0.4999   2.7612   4.9003

          k = 0.4000 0.0000 0.4000 (  2666 PWs)   bands (ev):

    -4.4030   1.7397   3.2145   5.3715

          k = 0.0000 0.6000 0.0000 (  2650 PWs)   bands (ev):

    -4.2023   1.8002   3.9860   3.9860

          k =-0.1000 0.7000-0.1000 (  2684 PWs)   bands (ev):

    -3.5885   0.7936   3.3590   3.7809

          k = 0.8000-0.2000 0.8000 (  2671 PWs)   bands (ev):

    -2.8371  -0.2136   2.5291   3.7876

          k = 0.7000-0.1000 0.7000 (  2658 PWs)   bands (ev):

    -2.4170  -0.6903   1.9748   4.0034

          k = 0.6000-0.0000 0.6000 (  2672 PWs)   bands (ev):

    -2.9563  -0.0999   1.9487   4.4004

          k = 0.0000 0.8000 0.0000 (  2666 PWs)   bands (ev):

    -3.0377   0.0366   3.5205   3.5205

          k = 0.9000-0.1000 0.9000 (  2674 PWs)   bands (ev):

    -2.3078  -0.8047   2.9338   3.4718

          k = 0.8000 0.0000 0.8000 (  2642 PWs)   bands (ev):

    -1.8310  -1.2257   2.1495   3.6394

          k = 0.0000-1.0000 0.0000 (  2698 PWs)   bands (ev):

    -1.6041  -1.6041   3.3627   3.3627

          k =-0.2000 0.4000 0.0000 (  2669 PWs)   bands (ev):

    -4.8918   2.8421   4.1350   5.2457

          k =-0.3000 0.5000-0.1000 (  2669 PWs)   bands (ev):

    -4.2793   1.4318   3.5460   4.8700

          k = 0.6000-0.4000 0.8000 (  2665 PWs)   bands (ev):

    -3.5313   0.0672   3.3147   4.5192

          k = 0.5000-0.3000 0.7000 (  2664 PWs)   bands (ev):

    -3.0713  -0.6115   3.2550   4.3811

          k =-0.2000 0.6000 0.0000 (  2676 PWs)   bands (ev):

    -4.0523   1.4436   3.4075   4.1304

          k = 0.7000-0.3000 0.9000 (  2676 PWs)   bands (ev):

    -3.3310   0.3408   2.7884   3.8011

          k = 0.6000-0.2000 0.8000 (  2677 PWs)   bands (ev):

    -2.6797  -0.5233   2.3796   3.7454

          k = 0.5000-0.1000 0.7000 (  2663 PWs)   bands (ev):

    -2.8815  -0.2636   2.2287   3.9858

          k = 0.4000 0.0000 0.6000 (  2673 PWs)   bands (ev):

    -3.6182   0.6869   2.5293   4.4266

          k = 0.8000-0.2000 1.0000 (  2675 PWs)   bands (ev):

    -2.9192  -0.0491   2.9960   3.3227

          k = 0.7000-0.1000 0.9000 (  2666 PWs)   bands (ev):

    -2.1798  -0.8245   2.2932   3.2319

          k = 0.6000 0.0000 0.8000 (  2663 PWs)   bands (ev):

    -2.1852  -0.7979   1.8767   3.5019

          k =-0.2000-1.0000 0.0000 (  2684 PWs)   bands (ev):

    -1.5508  -1.5508   2.9531   2.9531

          k = 0.6000-0.2000 1.0000 (  2673 PWs)   bands (ev):

    -2.5978  -0.3473   2.2345   3.2227

          k = 0.5000-0.1000 0.9000 (  2664 PWs)   bands (ev):

    -2.0859  -0.8571   2.0766   2.9711

          k =-0.4000-1.0000 0.0000 (  2664 PWs)   bands (ev):

    -1.4569  -1.4569   2.4390   2.4390

     highest occupied level (ev):     6.2177

!    total energy              =     -93.45393322 Ry
     Harris-Foulkes estimate   =     -93.45393329 Ry
     estimated scf accuracy    <       0.00000007 Ry

     total all-electron energy =     -1160.145669 Ry

     The total energy is the sum of the following terms:

     one-electron contribution =       5.74081129 Ry
     hartree contribution      =       1.09707029 Ry
     xc contribution           =     -12.25628801 Ry
     ewald contribution        =     -16.80092957 Ry
     one-center paw contrib.   =     -71.23459722 Ry

     convergence has been achieved in   5 iterations

     Forces acting on atoms (Ry/au):

     atom    1 type  1   force =    -0.00000000    0.00000000   -0.00000000
     atom    2 type  1   force =    -0.00000000   -0.00000000    0.00000000

     Total force =     0.000000     Total SCF correction =     0.000000


     entering subroutine stress ...

          total   stress  (Ry/bohr**3)                   (kbar)     P=   18.87
   0.00012828   0.00000000   0.00000000         18.87      0.00      0.00
   0.00000000   0.00012828  -0.00000000          0.00     18.87     -0.00
   0.00000000  -0.00000000   0.00012828          0.00     -0.00     18.87


     Writing output data file pwscf.save
 
     init_run     :      2.68s CPU      2.70s WALL (       1 calls)
     electrons    :     19.11s CPU     19.23s WALL (       1 calls)
     forces       :      0.30s CPU      0.30s WALL (       1 calls)
     stress       :      1.08s CPU      1.08s WALL (       1 calls)

     Called by init_run:
     wfcinit      :      1.78s CPU      1.79s WALL (       1 calls)
     potinit      :      0.24s CPU      0.25s WALL (       1 calls)

     Called by electrons:
     c_bands      :     14.63s CPU     14.71s WALL (       6 calls)
     sum_band     :      3.10s CPU      3.13s WALL (       6 calls)
     v_of_rho     :      0.43s CPU      0.44s WALL (       6 calls)
     newd         :      0.21s CPU      0.22s WALL (       6 calls)
     mix_rho      :      0.04s CPU      0.04s WALL (       6 calls)

     Called by c_bands:
     init_us_2    :      0.68s CPU      0.69s WALL (     705 calls)
     cegterg      :     13.50s CPU     13.58s WALL (     282 calls)

     Called by *egterg:
     h_psi        :     13.97s CPU     14.02s WALL (     874 calls)
     s_psi        :      0.28s CPU      0.28s WALL (     874 calls)
     g_psi        :      0.12s CPU      0.12s WALL (     545 calls)
     cdiaghg      :      0.08s CPU      0.08s WALL (     780 calls)

     Called by h_psi:
     add_vuspsi   :      0.27s CPU      0.28s WALL (     874 calls)

     General routines
     calbec       :      0.44s CPU      0.43s WALL (    1250 calls)
     fft          :      0.32s CPU      0.32s WALL (     105 calls)
     fftw         :     14.19s CPU     14.27s WALL (    7822 calls)
     davcio       :      0.00s CPU      0.00s WALL (      47 calls)
 
     Parallel routines
     fft_scatter  :      1.06s CPU      1.01s WALL (    7927 calls)

     PAW routines
     PAW_pot      :      0.95s CPU      0.95s WALL (       6 calls)
     PAW_symme    :      0.01s CPU      0.00s WALL (      12 calls)
 
     PWSCF        :    23.65s CPU        23.92s WALL

 
   This run was terminated on:  20:25:25  28Apr2015            

=------------------------------------------------------------------------------=
   JOB DONE.
=------------------------------------------------------------------------------=
