
     Program PWSCF v.5.1 starts on 28Apr2015 at 20:14:51 

     This program is part of the open-source Quantum ESPRESSO suite
     for quantum simulation of materials; please cite
         "P. Giannozzi et al., J. Phys.:Condens. Matter 21 395502 (2009);
          URL http://www.quantum-espresso.org", 
     in publications or presentations arising from this work. More details at
     http://www.quantum-espresso.org/quote

     Parallel version (MPI), running on     1 processors
     Waiting for input...
     Reading input from standard input
Warning: card &IONS ignored
Warning: card / ignored
Warning: card &CELL ignored
Warning: card / ignored

     Current dimensions of program PWSCF are:
     Max number of different atomic species (ntypx) = 10
     Max number of k-points (npk) =  40000
     Max angular momentum in pseudopotentials (lmaxx) =  3
               file Si.pbe-n-kjpaw_psl.0.1.UPF: wavefunction(s)  3S renormalized

     Subspace diagonalization in iterative solution of the eigenvalue problem:
     a serial algorithm will be used

 
     G-vector sticks info
     --------------------
     sticks:   dense  smooth     PW     G-vecs:    dense   smooth      PW
     Sum        1027    1027    301                21331    21331    3479
 


     bravais-lattice index     =            2
     lattice parameter (alat)  =      10.2600  a.u.
     unit-cell volume          =     270.0114 (a.u.)^3
     number of atoms/cell      =            2
     number of atomic types    =            1
     number of electrons       =         8.00
     number of Kohn-Sham states=            4
     kinetic-energy cutoff     =      70.0000  Ry
     charge density cutoff     =     280.0000  Ry
     convergence threshold     =      1.0E-06
     mixing beta               =       0.7000
     number of iterations used =            8  plain     mixing
     Exchange-correlation      =  SLA  PW   PBX  PBC ( 1  4  3  4 0)

     celldm(1)=  10.260000  celldm(2)=   0.000000  celldm(3)=   0.000000
     celldm(4)=   0.000000  celldm(5)=   0.000000  celldm(6)=   0.000000

     crystal axes: (cart. coord. in units of alat)
               a(1) = (  -0.500000   0.000000   0.500000 )  
               a(2) = (   0.000000   0.500000   0.500000 )  
               a(3) = (  -0.500000   0.500000   0.000000 )  

     reciprocal axes: (cart. coord. in units 2 pi/alat)
               b(1) = ( -1.000000 -1.000000  1.000000 )  
               b(2) = (  1.000000  1.000000  1.000000 )  
               b(3) = ( -1.000000  1.000000 -1.000000 )  


     PseudoPot. # 1 for Si read from file:
     ./Si.pbe-n-kjpaw_psl.0.1.UPF
     MD5 check sum: b9d333a40e496bef61db012f150758bf
     Pseudo is Projector augmented-wave + core cor, Zval =  4.0
     Generated using "atomic" code by A. Dal Corso  v.5.0.2 svn rev. 9415
     Shape of augmentation charge: PSQ
     Using radial grid of 1141 points,  4 beta functions with: 
                l(1) =   0
                l(2) =   0
                l(3) =   1
                l(4) =   1
     Q(r) pseudized with 0 coefficients 


     atomic species   valence    mass     pseudopotential
        Si             4.00    28.05500     Si( 1.00)

     48 Sym. Ops., with inversion, found (24 have fractional translation)



   Cartesian axes

     site n.     atom                  positions (alat units)
         1           Si  tau(   1) = (   0.0000000   0.0000000   0.0000000  )
         2           Si  tau(   2) = (  -0.2500000   0.2500000   0.2500000  )

     number of k points=    10
                       cart. coord. in units 2pi/alat
        k(    1) = (   0.0000000   0.0000000   0.0000000), wk =   0.0160000
        k(    2) = (  -0.2000000   0.2000000  -0.2000000), wk =   0.1280000
        k(    3) = (  -0.4000000   0.4000000  -0.4000000), wk =   0.1280000
        k(    4) = (   0.0000000   0.4000000   0.0000000), wk =   0.0960000
        k(    5) = (  -0.2000000   0.6000000  -0.2000000), wk =   0.3840000
        k(    6) = (   0.6000000  -0.2000000   0.6000000), wk =   0.3840000
        k(    7) = (   0.4000000   0.0000000   0.4000000), wk =   0.1920000
        k(    8) = (   0.0000000   0.8000000   0.0000000), wk =   0.0960000
        k(    9) = (   0.8000000   0.0000000   0.8000000), wk =   0.1920000
        k(   10) = (   0.6000000  -0.2000000   1.0000000), wk =   0.3840000

     Dense  grid:    21331 G-vectors     FFT dimensions: (  40,  40,  40)

     Largest allocated arrays     est. size (Mb)     dimensions
        Kohn-Sham Wavefunctions         0.16 Mb     (    2694,    4)
        NL pseudopotentials             0.66 Mb     (    2694,   16)
        Each V/rho on FFT grid          0.98 Mb     (   64000)
        Each G-vector array             0.16 Mb     (   21331)
        G-vector shells                 0.00 Mb     (     251)
     Largest temporary arrays     est. size (Mb)     dimensions
        Auxiliary wavefunctions         0.66 Mb     (    2694,   16)
        Each subspace H/S matrix        0.00 Mb     (      16,   16)
        Each <psi_i|beta_j> matrix      0.00 Mb     (      16,    4)
        Arrays for rho mixing           7.81 Mb     (   64000,    8)

     Initial potential from superposition of free atoms

     starting charge    7.99888, renormalised to    8.00000
     Starting wfc are    8 randomized atomic wfcs
     Checking if some PAW data can be deallocated... 

     total cpu time spent up to now is        1.7 secs

     per-process dynamical memory:    18.8 Mb

     Self-consistent Calculation

     iteration #  1     ecut=    70.00 Ry     beta=0.70
     Davidson diagonalization with overlap
     ethr =  1.00E-02,  avg # of iterations =  2.0

     Threshold (ethr) on eigenvalues was too large:
     Diagonalizing with lowered threshold

     Davidson diagonalization with overlap
     ethr =  7.51E-04,  avg # of iterations =  1.0

     total cpu time spent up to now is        3.3 secs

     total energy              =     -93.44675224 Ry
     Harris-Foulkes estimate   =     -93.46123826 Ry
     estimated scf accuracy    <       0.05933917 Ry

     iteration #  2     ecut=    70.00 Ry     beta=0.70
     Davidson diagonalization with overlap
     ethr =  7.42E-04,  avg # of iterations =  1.0

     total cpu time spent up to now is        4.1 secs

     total energy              =     -93.44894615 Ry
     Harris-Foulkes estimate   =     -93.44908012 Ry
     estimated scf accuracy    <       0.00256046 Ry

     iteration #  3     ecut=    70.00 Ry     beta=0.70
     Davidson diagonalization with overlap
     ethr =  3.20E-05,  avg # of iterations =  1.7

     total cpu time spent up to now is        5.0 secs

     total energy              =     -93.44920941 Ry
     Harris-Foulkes estimate   =     -93.44922339 Ry
     estimated scf accuracy    <       0.00005297 Ry

     iteration #  4     ecut=    70.00 Ry     beta=0.70
     Davidson diagonalization with overlap
     ethr =  6.62E-07,  avg # of iterations =  3.1

     total cpu time spent up to now is        6.2 secs

     total energy              =     -93.44924012 Ry
     Harris-Foulkes estimate   =     -93.44924048 Ry
     estimated scf accuracy    <       0.00000115 Ry

     iteration #  5     ecut=    70.00 Ry     beta=0.70
     Davidson diagonalization with overlap
     ethr =  1.43E-08,  avg # of iterations =  3.2

     total cpu time spent up to now is        7.3 secs

     End of self-consistent calculation

          k = 0.0000 0.0000 0.0000 (  2685 PWs)   bands (ev):

    -5.7393   6.2360   6.2360   6.2360

          k =-0.2000 0.2000-0.2000 (  2677 PWs)   bands (ev):

    -5.2210   3.2228   5.6547   5.6547

          k =-0.4000 0.4000-0.4000 (  2656 PWs)   bands (ev):

    -3.8557  -0.0445   5.1060   5.1060

          k = 0.0000 0.4000 0.0000 (  2694 PWs)   bands (ev):

    -5.0426   3.6110   4.7434   4.7434

          k =-0.2000 0.6000-0.2000 (  2668 PWs)   bands (ev):

    -3.8993   0.9221   3.6061   4.2344

          k = 0.6000-0.2000 0.6000 (  2681 PWs)   bands (ev):

    -3.0129  -0.4740   2.7960   4.5176

          k = 0.4000 0.0000 0.4000 (  2666 PWs)   bands (ev):

    -4.3880   1.7561   3.2278   5.3882

          k = 0.0000 0.8000 0.0000 (  2666 PWs)   bands (ev):

    -3.0223   0.0532   3.5346   3.5346

          k = 0.8000 0.0000 0.8000 (  2642 PWs)   bands (ev):

    -1.8147  -1.2097   2.1618   3.6537

          k = 0.6000-0.2000 1.0000 (  2673 PWs)   bands (ev):

    -2.5820  -0.3307   2.2470   3.2359

     highest occupied level (ev):     6.2360

!    total energy              =     -93.44924067 Ry
     Harris-Foulkes estimate   =     -93.44924072 Ry
     estimated scf accuracy    <       0.00000005 Ry

     total all-electron energy =     -1160.140977 Ry

     The total energy is the sum of the following terms:

     one-electron contribution =       5.74054503 Ry
     hartree contribution      =       1.10721270 Ry
     xc contribution           =     -12.26128205 Ry
     ewald contribution        =     -16.80092957 Ry
     one-center paw contrib.   =     -71.23478678 Ry

     convergence has been achieved in   5 iterations

     Forces acting on atoms (Ry/au):

     atom    1 type  1   force =    -0.00000000   -0.00000000    0.00000000
     atom    2 type  1   force =     0.00000000    0.00000000   -0.00000000

     Total force =     0.000000     Total SCF correction =     0.000000


     entering subroutine stress ...

          total   stress  (Ry/bohr**3)                   (kbar)     P=   21.04
   0.00014305  -0.00000000  -0.00000000         21.04     -0.00     -0.00
   0.00000000   0.00014305   0.00000000          0.00     21.04      0.00
  -0.00000000   0.00000000   0.00014305         -0.00      0.00     21.04


     Writing output data file pwscf.save
 
     init_run     :      1.26s CPU      1.31s WALL (       1 calls)
     electrons    :      5.49s CPU      5.52s WALL (       1 calls)
     forces       :      0.18s CPU      0.18s WALL (       1 calls)
     stress       :      0.54s CPU      0.54s WALL (       1 calls)

     Called by init_run:
     wfcinit      :      0.38s CPU      0.38s WALL (       1 calls)
     potinit      :      0.24s CPU      0.25s WALL (       1 calls)

     Called by electrons:
     c_bands      :      3.23s CPU      3.25s WALL (       6 calls)
     sum_band     :      0.88s CPU      0.88s WALL (       6 calls)
     v_of_rho     :      0.43s CPU      0.44s WALL (       6 calls)
     newd         :      0.21s CPU      0.21s WALL (       6 calls)
     mix_rho      :      0.03s CPU      0.04s WALL (       6 calls)

     Called by c_bands:
     init_us_2    :      0.14s CPU      0.15s WALL (     150 calls)
     cegterg      :      2.99s CPU      3.00s WALL (      60 calls)

     Called by *egterg:
     h_psi        :      3.08s CPU      3.09s WALL (     190 calls)
     s_psi        :      0.07s CPU      0.06s WALL (     190 calls)
     g_psi        :      0.02s CPU      0.03s WALL (     120 calls)
     cdiaghg      :      0.02s CPU      0.02s WALL (     170 calls)

     Called by h_psi:
     add_vuspsi   :      0.06s CPU      0.06s WALL (     190 calls)

     General routines
     calbec       :      0.09s CPU      0.09s WALL (     270 calls)
     fft          :      0.32s CPU      0.32s WALL (     105 calls)
     fftw         :      3.09s CPU      3.13s WALL (    1696 calls)
     davcio       :      0.00s CPU      0.00s WALL (      10 calls)
 
     Parallel routines
     fft_scatter  :      0.27s CPU      0.24s WALL (    1801 calls)

     PAW routines
     PAW_pot      :      0.95s CPU      0.95s WALL (       6 calls)
     PAW_symme    :      0.00s CPU      0.00s WALL (      12 calls)
 
     PWSCF        :     7.87s CPU         8.14s WALL

 
   This run was terminated on:  20:14:59  28Apr2015            

=------------------------------------------------------------------------------=
   JOB DONE.
=------------------------------------------------------------------------------=
