
     Program PWSCF v.5.1 starts on 28Apr2015 at 20:17:44 

     This program is part of the open-source Quantum ESPRESSO suite
     for quantum simulation of materials; please cite
         "P. Giannozzi et al., J. Phys.:Condens. Matter 21 395502 (2009);
          URL http://www.quantum-espresso.org", 
     in publications or presentations arising from this work. More details at
     http://www.quantum-espresso.org/quote

     Parallel version (MPI), running on     1 processors
     Waiting for input...
     Reading input from standard input
Warning: card &IONS ignored
Warning: card / ignored
Warning: card &CELL ignored
Warning: card / ignored

     Current dimensions of program PWSCF are:
     Max number of different atomic species (ntypx) = 10
     Max number of k-points (npk) =  40000
     Max angular momentum in pseudopotentials (lmaxx) =  3
               file Si.pbe-n-kjpaw_psl.0.1.UPF: wavefunction(s)  3S renormalized

     Subspace diagonalization in iterative solution of the eigenvalue problem:
     a serial algorithm will be used

 
     G-vector sticks info
     --------------------
     sticks:   dense  smooth     PW     G-vecs:    dense   smooth      PW
     Sum        1027    1027    301                21331    21331    3479
 


     bravais-lattice index     =            2
     lattice parameter (alat)  =      10.2600  a.u.
     unit-cell volume          =     270.0114 (a.u.)^3
     number of atoms/cell      =            2
     number of atomic types    =            1
     number of electrons       =         8.00
     number of Kohn-Sham states=            4
     kinetic-energy cutoff     =      70.0000  Ry
     charge density cutoff     =     280.0000  Ry
     convergence threshold     =      1.0E-06
     mixing beta               =       0.7000
     number of iterations used =            8  plain     mixing
     Exchange-correlation      =  SLA  PW   PBX  PBC ( 1  4  3  4 0)

     celldm(1)=  10.260000  celldm(2)=   0.000000  celldm(3)=   0.000000
     celldm(4)=   0.000000  celldm(5)=   0.000000  celldm(6)=   0.000000

     crystal axes: (cart. coord. in units of alat)
               a(1) = (  -0.500000   0.000000   0.500000 )  
               a(2) = (   0.000000   0.500000   0.500000 )  
               a(3) = (  -0.500000   0.500000   0.000000 )  

     reciprocal axes: (cart. coord. in units 2 pi/alat)
               b(1) = ( -1.000000 -1.000000  1.000000 )  
               b(2) = (  1.000000  1.000000  1.000000 )  
               b(3) = ( -1.000000  1.000000 -1.000000 )  


     PseudoPot. # 1 for Si read from file:
     ./Si.pbe-n-kjpaw_psl.0.1.UPF
     MD5 check sum: b9d333a40e496bef61db012f150758bf
     Pseudo is Projector augmented-wave + core cor, Zval =  4.0
     Generated using "atomic" code by A. Dal Corso  v.5.0.2 svn rev. 9415
     Shape of augmentation charge: PSQ
     Using radial grid of 1141 points,  4 beta functions with: 
                l(1) =   0
                l(2) =   0
                l(3) =   1
                l(4) =   1
     Q(r) pseudized with 0 coefficients 


     atomic species   valence    mass     pseudopotential
        Si             4.00    28.05500     Si( 1.00)

     48 Sym. Ops., with inversion, found (24 have fractional translation)



   Cartesian axes

     site n.     atom                  positions (alat units)
         1           Si  tau(   1) = (   0.0000000   0.0000000   0.0000000  )
         2           Si  tau(   2) = (  -0.2500000   0.2500000   0.2500000  )

     number of k points=    20
                       cart. coord. in units 2pi/alat
        k(    1) = (   0.0000000   0.0000000   0.0000000), wk =   0.0058309
        k(    2) = (  -0.1428571   0.1428571  -0.1428571), wk =   0.0466472
        k(    3) = (  -0.2857143   0.2857143  -0.2857143), wk =   0.0466472
        k(    4) = (  -0.4285714   0.4285714  -0.4285714), wk =   0.0466472
        k(    5) = (   0.0000000   0.2857143   0.0000000), wk =   0.0349854
        k(    6) = (  -0.1428571   0.4285714  -0.1428571), wk =   0.1399417
        k(    7) = (  -0.2857143   0.5714286  -0.2857143), wk =   0.1399417
        k(    8) = (   0.5714286  -0.2857143   0.5714286), wk =   0.1399417
        k(    9) = (   0.4285714  -0.1428571   0.4285714), wk =   0.1399417
        k(   10) = (   0.2857143  -0.0000000   0.2857143), wk =   0.0699708
        k(   11) = (   0.0000000   0.5714286   0.0000000), wk =   0.0349854
        k(   12) = (  -0.1428571   0.7142857  -0.1428571), wk =   0.1399417
        k(   13) = (   0.7142857  -0.1428571   0.7142857), wk =   0.1399417
        k(   14) = (   0.5714286   0.0000000   0.5714286), wk =   0.0699708
        k(   15) = (   0.0000000   0.8571429   0.0000000), wk =   0.0349854
        k(   16) = (   0.8571429  -0.0000000   0.8571429), wk =   0.0699708
        k(   17) = (  -0.2857143   0.5714286   0.0000000), wk =   0.1399417
        k(   18) = (   0.5714286  -0.2857143   0.8571429), wk =   0.2798834
        k(   19) = (   0.7142857  -0.1428571   1.0000000), wk =   0.1399417
        k(   20) = (   0.5714286   0.0000000   0.8571429), wk =   0.1399417

     Dense  grid:    21331 G-vectors     FFT dimensions: (  40,  40,  40)

     Largest allocated arrays     est. size (Mb)     dimensions
        Kohn-Sham Wavefunctions         0.16 Mb     (    2698,    4)
        NL pseudopotentials             0.66 Mb     (    2698,   16)
        Each V/rho on FFT grid          0.98 Mb     (   64000)
        Each G-vector array             0.16 Mb     (   21331)
        G-vector shells                 0.00 Mb     (     251)
     Largest temporary arrays     est. size (Mb)     dimensions
        Auxiliary wavefunctions         0.66 Mb     (    2698,   16)
        Each subspace H/S matrix        0.00 Mb     (      16,   16)
        Each <psi_i|beta_j> matrix      0.00 Mb     (      16,    4)
        Arrays for rho mixing           7.81 Mb     (   64000,    8)

     Initial potential from superposition of free atoms

     starting charge    7.99888, renormalised to    8.00000
     Starting wfc are    8 randomized atomic wfcs
     Checking if some PAW data can be deallocated... 

     total cpu time spent up to now is        2.0 secs

     per-process dynamical memory:    18.8 Mb

     Self-consistent Calculation

     iteration #  1     ecut=    70.00 Ry     beta=0.70
     Davidson diagonalization with overlap
     ethr =  1.00E-02,  avg # of iterations =  2.0

     Threshold (ethr) on eigenvalues was too large:
     Diagonalizing with lowered threshold

     Davidson diagonalization with overlap
     ethr =  7.24E-04,  avg # of iterations =  1.1

     total cpu time spent up to now is        4.7 secs

     total energy              =     -93.45084246 Ry
     Harris-Foulkes estimate   =     -93.46475573 Ry
     estimated scf accuracy    <       0.05737252 Ry

     iteration #  2     ecut=    70.00 Ry     beta=0.70
     Davidson diagonalization with overlap
     ethr =  7.17E-04,  avg # of iterations =  1.0

     total cpu time spent up to now is        6.0 secs

     total energy              =     -93.45297931 Ry
     Harris-Foulkes estimate   =     -93.45311256 Ry
     estimated scf accuracy    <       0.00245742 Ry

     iteration #  3     ecut=    70.00 Ry     beta=0.70
     Davidson diagonalization with overlap
     ethr =  3.07E-05,  avg # of iterations =  1.9

     total cpu time spent up to now is        7.5 secs

     total energy              =     -93.45326317 Ry
     Harris-Foulkes estimate   =     -93.45328032 Ry
     estimated scf accuracy    <       0.00005318 Ry

     iteration #  4     ecut=    70.00 Ry     beta=0.70
     Davidson diagonalization with overlap
     ethr =  6.65E-07,  avg # of iterations =  3.0

     total cpu time spent up to now is        9.4 secs

     total energy              =     -93.45329047 Ry
     Harris-Foulkes estimate   =     -93.45329128 Ry
     estimated scf accuracy    <       0.00000221 Ry

     iteration #  5     ecut=    70.00 Ry     beta=0.70
     Davidson diagonalization with overlap
     ethr =  2.76E-08,  avg # of iterations =  2.8

     total cpu time spent up to now is       11.1 secs

     End of self-consistent calculation

          k = 0.0000 0.0000 0.0000 (  2685 PWs)   bands (ev):

    -5.7512   6.2211   6.2211   6.2211

          k =-0.1429 0.1429-0.1429 (  2698 PWs)   bands (ev):

    -5.4846   4.2874   5.8633   5.8633

          k =-0.2857 0.2857-0.2857 (  2674 PWs)   bands (ev):

    -4.7164   1.6637   5.3467   5.3467

          k =-0.4286 0.4286-0.4286 (  2665 PWs)   bands (ev):

    -3.6724  -0.3725   5.0576   5.0576

          k = 0.0000 0.2857 0.0000 (  2689 PWs)   bands (ev):

    -5.3945   4.5895   5.2465   5.2465

          k =-0.1429 0.4286-0.1429 (  2675 PWs)   bands (ev):

    -4.7862   2.4607   4.6645   4.7030

          k =-0.2857 0.5714-0.2857 (  2687 PWs)   bands (ev):

    -3.7744   0.2703   3.9748   4.5140

          k = 0.5714-0.2857 0.5714 (  2660 PWs)   bands (ev):

    -3.2130  -0.5975   3.5592   4.7127

          k = 0.4286-0.1429 0.4286 (  2668 PWs)   bands (ev):

    -4.1441   0.9524   3.5621   5.2283

          k = 0.2857-0.0000 0.2857 (  2663 PWs)   bands (ev):

    -5.0474   3.0818   4.2512   5.8231

          k = 0.0000 0.5714 0.0000 (  2662 PWs)   bands (ev):

    -4.3413   2.0600   4.0790   4.0790

          k =-0.1429 0.7143-0.1429 (  2670 PWs)   bands (ev):

    -3.4364   0.5534   3.0977   3.8187

          k = 0.7143-0.1429 0.7143 (  2668 PWs)   bands (ev):

    -2.5148  -0.6302   2.1417   3.9881

          k = 0.5714 0.0000 0.5714 (  2672 PWs)   bands (ev):

    -3.1676   0.1234   2.0666   4.5392

          k = 0.0000 0.8571 0.0000 (  2666 PWs)   bands (ev):

    -2.6504  -0.4457   3.4460   3.4460

          k = 0.8571-0.0000 0.8571 (  2666 PWs)   bands (ev):

    -1.6968  -1.4079   2.5482   3.5077

          k =-0.2857 0.5714 0.0000 (  2664 PWs)   bands (ev):

    -4.0317   1.3207   3.1005   4.4303

          k = 0.5714-0.2857 0.8571 (  2671 PWs)   bands (ev):

    -2.9861  -0.2166   2.5283   3.8910

          k = 0.7143-0.1429 1.0000 (  2666 PWs)   bands (ev):

    -2.4444  -0.5314   2.6155   3.0273

          k = 0.5714 0.0000 0.8571 (  2673 PWs)   bands (ev):

    -2.0051  -0.9300   1.9733   3.1197

     highest occupied level (ev):     6.2211

!    total energy              =     -93.45329127 Ry
     Harris-Foulkes estimate   =     -93.45329134 Ry
     estimated scf accuracy    <       0.00000007 Ry

     total all-electron energy =     -1160.145027 Ry

     The total energy is the sum of the following terms:

     one-electron contribution =       5.74050577 Ry
     hartree contribution      =       1.09895020 Ry
     xc contribution           =     -12.25720892 Ry
     ewald contribution        =     -16.80092957 Ry
     one-center paw contrib.   =     -71.23460875 Ry

     convergence has been achieved in   5 iterations

     Forces acting on atoms (Ry/au):

     atom    1 type  1   force =    -0.00000000   -0.00000000   -0.00000000
     atom    2 type  1   force =     0.00000000   -0.00000000    0.00000000

     Total force =     0.000000     Total SCF correction =     0.000000


     entering subroutine stress ...

          total   stress  (Ry/bohr**3)                   (kbar)     P=   19.12
   0.00012997   0.00000000   0.00000000         19.12      0.00      0.00
   0.00000000   0.00012997  -0.00000000          0.00     19.12     -0.00
   0.00000000  -0.00000000   0.00012997          0.00     -0.00     19.12


     Writing output data file pwscf.save
 
     init_run     :      1.64s CPU      1.65s WALL (       1 calls)
     electrons    :      9.13s CPU      9.17s WALL (       1 calls)
     forces       :      0.22s CPU      0.22s WALL (       1 calls)
     stress       :      0.69s CPU      0.69s WALL (       1 calls)

     Called by init_run:
     wfcinit      :      0.75s CPU      0.76s WALL (       1 calls)
     potinit      :      0.24s CPU      0.25s WALL (       1 calls)

     Called by electrons:
     c_bands      :      6.27s CPU      6.30s WALL (       6 calls)
     sum_band     :      1.47s CPU      1.48s WALL (       6 calls)
     v_of_rho     :      0.43s CPU      0.44s WALL (       6 calls)
     newd         :      0.22s CPU      0.21s WALL (       6 calls)
     mix_rho      :      0.04s CPU      0.04s WALL (       6 calls)

     Called by c_bands:
     init_us_2    :      0.29s CPU      0.29s WALL (     300 calls)
     cegterg      :      5.79s CPU      5.82s WALL (     120 calls)

     Called by *egterg:
     h_psi        :      5.98s CPU      6.00s WALL (     376 calls)
     s_psi        :      0.12s CPU      0.12s WALL (     376 calls)
     g_psi        :      0.04s CPU      0.05s WALL (     236 calls)
     cdiaghg      :      0.04s CPU      0.03s WALL (     336 calls)

     Called by h_psi:
     add_vuspsi   :      0.12s CPU      0.12s WALL (     376 calls)

     General routines
     calbec       :      0.16s CPU      0.18s WALL (     536 calls)
     fft          :      0.32s CPU      0.32s WALL (     105 calls)
     fftw         :      6.15s CPU      6.09s WALL (    3344 calls)
     davcio       :      0.00s CPU      0.00s WALL (      20 calls)
 
     Parallel routines
     fft_scatter  :      0.42s CPU      0.45s WALL (    3449 calls)

     PAW routines
     PAW_pot      :      0.95s CPU      0.95s WALL (       6 calls)
     PAW_symme    :      0.00s CPU      0.00s WALL (      12 calls)
 
     PWSCF        :    12.09s CPU        12.24s WALL

 
   This run was terminated on:  20:17:56  28Apr2015            

=------------------------------------------------------------------------------=
   JOB DONE.
=------------------------------------------------------------------------------=
