
     Program PWSCF v.5.1 starts on 28Apr2015 at 20:17:56 

     This program is part of the open-source Quantum ESPRESSO suite
     for quantum simulation of materials; please cite
         "P. Giannozzi et al., J. Phys.:Condens. Matter 21 395502 (2009);
          URL http://www.quantum-espresso.org", 
     in publications or presentations arising from this work. More details at
     http://www.quantum-espresso.org/quote

     Parallel version (MPI), running on     1 processors
     Waiting for input...
     Reading input from standard input
Warning: card &IONS ignored
Warning: card / ignored
Warning: card &CELL ignored
Warning: card / ignored

     Current dimensions of program PWSCF are:
     Max number of different atomic species (ntypx) = 10
     Max number of k-points (npk) =  40000
     Max angular momentum in pseudopotentials (lmaxx) =  3
               file Si.pbe-n-kjpaw_psl.0.1.UPF: wavefunction(s)  3S renormalized

     Subspace diagonalization in iterative solution of the eigenvalue problem:
     a serial algorithm will be used

 
     G-vector sticks info
     --------------------
     sticks:   dense  smooth     PW     G-vecs:    dense   smooth      PW
     Sum        1159    1159    349                26229    26229    4111
 


     bravais-lattice index     =            2
     lattice parameter (alat)  =      10.2600  a.u.
     unit-cell volume          =     270.0114 (a.u.)^3
     number of atoms/cell      =            2
     number of atomic types    =            1
     number of electrons       =         8.00
     number of Kohn-Sham states=            4
     kinetic-energy cutoff     =      80.0000  Ry
     charge density cutoff     =     320.0000  Ry
     convergence threshold     =      1.0E-06
     mixing beta               =       0.7000
     number of iterations used =            8  plain     mixing
     Exchange-correlation      =  SLA  PW   PBX  PBC ( 1  4  3  4 0)

     celldm(1)=  10.260000  celldm(2)=   0.000000  celldm(3)=   0.000000
     celldm(4)=   0.000000  celldm(5)=   0.000000  celldm(6)=   0.000000

     crystal axes: (cart. coord. in units of alat)
               a(1) = (  -0.500000   0.000000   0.500000 )  
               a(2) = (   0.000000   0.500000   0.500000 )  
               a(3) = (  -0.500000   0.500000   0.000000 )  

     reciprocal axes: (cart. coord. in units 2 pi/alat)
               b(1) = ( -1.000000 -1.000000  1.000000 )  
               b(2) = (  1.000000  1.000000  1.000000 )  
               b(3) = ( -1.000000  1.000000 -1.000000 )  


     PseudoPot. # 1 for Si read from file:
     ./Si.pbe-n-kjpaw_psl.0.1.UPF
     MD5 check sum: b9d333a40e496bef61db012f150758bf
     Pseudo is Projector augmented-wave + core cor, Zval =  4.0
     Generated using "atomic" code by A. Dal Corso  v.5.0.2 svn rev. 9415
     Shape of augmentation charge: PSQ
     Using radial grid of 1141 points,  4 beta functions with: 
                l(1) =   0
                l(2) =   0
                l(3) =   1
                l(4) =   1
     Q(r) pseudized with 0 coefficients 


     atomic species   valence    mass     pseudopotential
        Si             4.00    28.05500     Si( 1.00)

     24 Sym. Ops. (no inversion) found
          (note: 24 additional sym.ops. were found but ignored
           their fractional translations are incommensurate with FFT grid)


   Cartesian axes

     site n.     atom                  positions (alat units)
         1           Si  tau(   1) = (   0.0000000   0.0000000   0.0000000  )
         2           Si  tau(   2) = (  -0.2500000   0.2500000   0.2500000  )

     number of k points=    20
                       cart. coord. in units 2pi/alat
        k(    1) = (   0.0000000   0.0000000   0.0000000), wk =   0.0058309
        k(    2) = (  -0.1428571   0.1428571  -0.1428571), wk =   0.0466472
        k(    3) = (  -0.2857143   0.2857143  -0.2857143), wk =   0.0466472
        k(    4) = (  -0.4285714   0.4285714  -0.4285714), wk =   0.0466472
        k(    5) = (   0.0000000   0.2857143   0.0000000), wk =   0.0349854
        k(    6) = (  -0.1428571   0.4285714  -0.1428571), wk =   0.1399417
        k(    7) = (  -0.2857143   0.5714286  -0.2857143), wk =   0.1399417
        k(    8) = (   0.5714286  -0.2857143   0.5714286), wk =   0.1399417
        k(    9) = (   0.4285714  -0.1428571   0.4285714), wk =   0.1399417
        k(   10) = (   0.2857143  -0.0000000   0.2857143), wk =   0.0699708
        k(   11) = (   0.0000000   0.5714286   0.0000000), wk =   0.0349854
        k(   12) = (  -0.1428571   0.7142857  -0.1428571), wk =   0.1399417
        k(   13) = (   0.7142857  -0.1428571   0.7142857), wk =   0.1399417
        k(   14) = (   0.5714286   0.0000000   0.5714286), wk =   0.0699708
        k(   15) = (   0.0000000   0.8571429   0.0000000), wk =   0.0349854
        k(   16) = (   0.8571429  -0.0000000   0.8571429), wk =   0.0699708
        k(   17) = (  -0.2857143   0.5714286   0.0000000), wk =   0.1399417
        k(   18) = (   0.5714286  -0.2857143   0.8571429), wk =   0.2798834
        k(   19) = (   0.7142857  -0.1428571   1.0000000), wk =   0.1399417
        k(   20) = (   0.5714286   0.0000000   0.8571429), wk =   0.1399417

     Dense  grid:    26229 G-vectors     FFT dimensions: (  45,  45,  45)

     Largest allocated arrays     est. size (Mb)     dimensions
        Kohn-Sham Wavefunctions         0.20 Mb     (    3287,    4)
        NL pseudopotentials             0.80 Mb     (    3287,   16)
        Each V/rho on FFT grid          1.39 Mb     (   91125)
        Each G-vector array             0.20 Mb     (   26229)
        G-vector shells                 0.00 Mb     (     288)
     Largest temporary arrays     est. size (Mb)     dimensions
        Auxiliary wavefunctions         0.80 Mb     (    3287,   16)
        Each subspace H/S matrix        0.00 Mb     (      16,   16)
        Each <psi_i|beta_j> matrix      0.00 Mb     (      16,    4)
        Arrays for rho mixing          11.12 Mb     (   91125,    8)

     Initial potential from superposition of free atoms

     starting charge    7.99888, renormalised to    8.00000
     Starting wfc are    8 randomized atomic wfcs
     Checking if some PAW data can be deallocated... 

     total cpu time spent up to now is        2.5 secs

     per-process dynamical memory:    23.2 Mb

     Self-consistent Calculation

     iteration #  1     ecut=    80.00 Ry     beta=0.70
     Davidson diagonalization with overlap
     ethr =  1.00E-02,  avg # of iterations =  2.0

     Threshold (ethr) on eigenvalues was too large:
     Diagonalizing with lowered threshold

     Davidson diagonalization with overlap
     ethr =  7.25E-04,  avg # of iterations =  1.1

     total cpu time spent up to now is        6.6 secs

     total energy              =     -93.45084534 Ry
     Harris-Foulkes estimate   =     -93.46475875 Ry
     estimated scf accuracy    <       0.05735303 Ry

     iteration #  2     ecut=    80.00 Ry     beta=0.70
     Davidson diagonalization with overlap
     ethr =  7.17E-04,  avg # of iterations =  1.0

     total cpu time spent up to now is        8.5 secs

     total energy              =     -93.45298287 Ry
     Harris-Foulkes estimate   =     -93.45311584 Ry
     estimated scf accuracy    <       0.00246088 Ry

     iteration #  3     ecut=    80.00 Ry     beta=0.70
     Davidson diagonalization with overlap
     ethr =  3.08E-05,  avg # of iterations =  1.9

     total cpu time spent up to now is       10.7 secs

     total energy              =     -93.45326776 Ry
     Harris-Foulkes estimate   =     -93.45328511 Ry
     estimated scf accuracy    <       0.00005310 Ry

     iteration #  4     ecut=    80.00 Ry     beta=0.70
     Davidson diagonalization with overlap
     ethr =  6.64E-07,  avg # of iterations =  3.1

     total cpu time spent up to now is       13.5 secs

     total energy              =     -93.45329527 Ry
     Harris-Foulkes estimate   =     -93.45329606 Ry
     estimated scf accuracy    <       0.00000218 Ry

     iteration #  5     ecut=    80.00 Ry     beta=0.70
     Davidson diagonalization with overlap
     ethr =  2.72E-08,  avg # of iterations =  2.7

     total cpu time spent up to now is       16.1 secs

     End of self-consistent calculation

          k = 0.0000 0.0000 0.0000 (  3287 PWs)   bands (ev):

    -5.7513   6.2209   6.2209   6.2209

          k =-0.1429 0.1429-0.1429 (  3278 PWs)   bands (ev):

    -5.4847   4.2873   5.8631   5.8631

          k =-0.2857 0.2857-0.2857 (  3263 PWs)   bands (ev):

    -4.7166   1.6636   5.3465   5.3465

          k =-0.4286 0.4286-0.4286 (  3263 PWs)   bands (ev):

    -3.6726  -0.3726   5.0574   5.0574

          k = 0.0000 0.2857 0.0000 (  3275 PWs)   bands (ev):

    -5.3946   4.5894   5.2464   5.2464

          k =-0.1429 0.4286-0.1429 (  3268 PWs)   bands (ev):

    -4.7863   2.4606   4.6644   4.7029

          k =-0.2857 0.5714-0.2857 (  3270 PWs)   bands (ev):

    -3.7746   0.2702   3.9747   4.5139

          k = 0.5714-0.2857 0.5714 (  3262 PWs)   bands (ev):

    -3.2132  -0.5976   3.5591   4.7126

          k = 0.4286-0.1429 0.4286 (  3262 PWs)   bands (ev):

    -4.1442   0.9523   3.5620   5.2282

          k = 0.2857-0.0000 0.2857 (  3275 PWs)   bands (ev):

    -5.0475   3.0817   4.2511   5.8230

          k = 0.0000 0.5714 0.0000 (  3267 PWs)   bands (ev):

    -4.3414   2.0598   4.0789   4.0789

          k =-0.1429 0.7143-0.1429 (  3264 PWs)   bands (ev):

    -3.4366   0.5532   3.0976   3.8186

          k = 0.7143-0.1429 0.7143 (  3252 PWs)   bands (ev):

    -2.5150  -0.6303   2.1416   3.9880

          k = 0.5714 0.0000 0.5714 (  3252 PWs)   bands (ev):

    -3.1677   0.1232   2.0665   4.5391

          k = 0.0000 0.8571 0.0000 (  3286 PWs)   bands (ev):

    -2.6506  -0.4458   3.4458   3.4458

          k = 0.8571-0.0000 0.8571 (  3266 PWs)   bands (ev):

    -1.6970  -1.4080   2.5481   3.5076

          k =-0.2857 0.5714 0.0000 (  3270 PWs)   bands (ev):

    -4.0318   1.3205   3.1004   4.4301

          k = 0.5714-0.2857 0.8571 (  3268 PWs)   bands (ev):

    -2.9862  -0.2168   2.5282   3.8909

          k = 0.7143-0.1429 1.0000 (  3255 PWs)   bands (ev):

    -2.4445  -0.5316   2.6154   3.0272

          k = 0.5714 0.0000 0.8571 (  3257 PWs)   bands (ev):

    -2.0052  -0.9301   1.9732   3.1196

     highest occupied level (ev):     6.2209

!    total energy              =     -93.45329601 Ry
     Harris-Foulkes estimate   =     -93.45329607 Ry
     estimated scf accuracy    <       0.00000006 Ry

     total all-electron energy =     -1160.145032 Ry

     The total energy is the sum of the following terms:

     one-electron contribution =       5.74048066 Ry
     hartree contribution      =       1.09897599 Ry
     xc contribution           =     -12.25720908 Ry
     ewald contribution        =     -16.80092957 Ry
     one-center paw contrib.   =     -71.23461401 Ry

     convergence has been achieved in   5 iterations

     Forces acting on atoms (Ry/au):

     atom    1 type  1   force =     0.00000000   -0.00000000    0.00000000
     atom    2 type  1   force =     0.00000000    0.00000000   -0.00000000

     Total force =     0.000000     Total SCF correction =     0.000000


     entering subroutine stress ...

          total   stress  (Ry/bohr**3)                   (kbar)     P=   19.14
   0.00013009   0.00000000   0.00000000         19.14      0.00      0.00
   0.00000000   0.00013009   0.00000000          0.00     19.14      0.00
   0.00000000   0.00000000   0.00013009          0.00      0.00     19.14


     Writing output data file pwscf.save
 
     init_run     :      2.18s CPU      2.19s WALL (       1 calls)
     electrons    :     13.58s CPU     13.65s WALL (       1 calls)
     forces       :      0.28s CPU      0.28s WALL (       1 calls)
     stress       :      0.87s CPU      0.87s WALL (       1 calls)

     Called by init_run:
     wfcinit      :      1.17s CPU      1.18s WALL (       1 calls)
     potinit      :      0.28s CPU      0.29s WALL (       1 calls)

     Called by electrons:
     c_bands      :      9.65s CPU      9.69s WALL (       6 calls)
     sum_band     :      2.31s CPU      2.32s WALL (       6 calls)
     v_of_rho     :      0.63s CPU      0.64s WALL (       6 calls)
     newd         :      0.27s CPU      0.27s WALL (       6 calls)
     mix_rho      :      0.05s CPU      0.05s WALL (       6 calls)

     Called by c_bands:
     init_us_2    :      0.36s CPU      0.37s WALL (     300 calls)
     cegterg      :      9.07s CPU      9.10s WALL (     120 calls)

     Called by *egterg:
     h_psi        :      9.54s CPU      9.56s WALL (     374 calls)
     s_psi        :      0.13s CPU      0.14s WALL (     374 calls)
     g_psi        :      0.07s CPU      0.06s WALL (     234 calls)
     cdiaghg      :      0.04s CPU      0.04s WALL (     334 calls)

     Called by h_psi:
     add_vuspsi   :      0.14s CPU      0.15s WALL (     374 calls)

     General routines
     calbec       :      0.23s CPU      0.23s WALL (     534 calls)
     fft          :      0.48s CPU      0.49s WALL (     105 calls)
     fftw         :      9.93s CPU      9.93s WALL (    3340 calls)
     davcio       :      0.00s CPU      0.00s WALL (      20 calls)
 
     Parallel routines
     fft_scatter  :      0.74s CPU      0.76s WALL (    3445 calls)

     PAW routines
     PAW_pot      :      0.95s CPU      0.95s WALL (       6 calls)
     PAW_symme    :      0.00s CPU      0.00s WALL (      12 calls)
 
     PWSCF        :    17.33s CPU        17.48s WALL

 
   This run was terminated on:  20:18:14  28Apr2015            

=------------------------------------------------------------------------------=
   JOB DONE.
=------------------------------------------------------------------------------=
