
     Program PWSCF v.5.1 starts on 28Apr2015 at 20:16:17 

     This program is part of the open-source Quantum ESPRESSO suite
     for quantum simulation of materials; please cite
         "P. Giannozzi et al., J. Phys.:Condens. Matter 21 395502 (2009);
          URL http://www.quantum-espresso.org", 
     in publications or presentations arising from this work. More details at
     http://www.quantum-espresso.org/quote

     Parallel version (MPI), running on     1 processors
     Waiting for input...
     Reading input from standard input
Warning: card &IONS ignored
Warning: card / ignored
Warning: card &CELL ignored
Warning: card / ignored

     Current dimensions of program PWSCF are:
     Max number of different atomic species (ntypx) = 10
     Max number of k-points (npk) =  40000
     Max angular momentum in pseudopotentials (lmaxx) =  3
               file Si.pbe-n-kjpaw_psl.0.1.UPF: wavefunction(s)  3S renormalized

     Subspace diagonalization in iterative solution of the eigenvalue problem:
     a serial algorithm will be used

 
     G-vector sticks info
     --------------------
     sticks:   dense  smooth     PW     G-vecs:    dense   smooth      PW
     Sum        1159    1159    349                26229    26229    4279
 


     bravais-lattice index     =            2
     lattice parameter (alat)  =      10.2600  a.u.
     unit-cell volume          =     270.0114 (a.u.)^3
     number of atoms/cell      =            2
     number of atomic types    =            1
     number of electrons       =         8.00
     number of Kohn-Sham states=            4
     kinetic-energy cutoff     =      80.0000  Ry
     charge density cutoff     =     320.0000  Ry
     convergence threshold     =      1.0E-06
     mixing beta               =       0.7000
     number of iterations used =            8  plain     mixing
     Exchange-correlation      =  SLA  PW   PBX  PBC ( 1  4  3  4 0)

     celldm(1)=  10.260000  celldm(2)=   0.000000  celldm(3)=   0.000000
     celldm(4)=   0.000000  celldm(5)=   0.000000  celldm(6)=   0.000000

     crystal axes: (cart. coord. in units of alat)
               a(1) = (  -0.500000   0.000000   0.500000 )  
               a(2) = (   0.000000   0.500000   0.500000 )  
               a(3) = (  -0.500000   0.500000   0.000000 )  

     reciprocal axes: (cart. coord. in units 2 pi/alat)
               b(1) = ( -1.000000 -1.000000  1.000000 )  
               b(2) = (  1.000000  1.000000  1.000000 )  
               b(3) = ( -1.000000  1.000000 -1.000000 )  


     PseudoPot. # 1 for Si read from file:
     ./Si.pbe-n-kjpaw_psl.0.1.UPF
     MD5 check sum: b9d333a40e496bef61db012f150758bf
     Pseudo is Projector augmented-wave + core cor, Zval =  4.0
     Generated using "atomic" code by A. Dal Corso  v.5.0.2 svn rev. 9415
     Shape of augmentation charge: PSQ
     Using radial grid of 1141 points,  4 beta functions with: 
                l(1) =   0
                l(2) =   0
                l(3) =   1
                l(4) =   1
     Q(r) pseudized with 0 coefficients 


     atomic species   valence    mass     pseudopotential
        Si             4.00    28.05500     Si( 1.00)

     24 Sym. Ops. (no inversion) found
          (note: 24 additional sym.ops. were found but ignored
           their fractional translations are incommensurate with FFT grid)


   Cartesian axes

     site n.     atom                  positions (alat units)
         1           Si  tau(   1) = (   0.0000000   0.0000000   0.0000000  )
         2           Si  tau(   2) = (  -0.2500000   0.2500000   0.2500000  )

     number of k points=    16
                       cart. coord. in units 2pi/alat
        k(    1) = (   0.0000000   0.0000000   0.0000000), wk =   0.0092593
        k(    2) = (  -0.1666667   0.1666667  -0.1666667), wk =   0.0740741
        k(    3) = (  -0.3333333   0.3333333  -0.3333333), wk =   0.0740741
        k(    4) = (   0.5000000  -0.5000000   0.5000000), wk =   0.0370370
        k(    5) = (   0.0000000   0.3333333   0.0000000), wk =   0.0555556
        k(    6) = (  -0.1666667   0.5000000  -0.1666667), wk =   0.2222222
        k(    7) = (   0.6666667  -0.3333333   0.6666667), wk =   0.2222222
        k(    8) = (   0.5000000  -0.1666667   0.5000000), wk =   0.2222222
        k(    9) = (   0.3333333   0.0000000   0.3333333), wk =   0.1111111
        k(   10) = (   0.0000000   0.6666667   0.0000000), wk =   0.0555556
        k(   11) = (   0.8333333  -0.1666667   0.8333333), wk =   0.2222222
        k(   12) = (   0.6666667  -0.0000000   0.6666667), wk =   0.1111111
        k(   13) = (   0.0000000  -1.0000000   0.0000000), wk =   0.0277778
        k(   14) = (   0.6666667  -0.3333333   1.0000000), wk =   0.2222222
        k(   15) = (   0.5000000  -0.1666667   0.8333333), wk =   0.2222222
        k(   16) = (  -0.3333333  -1.0000000   0.0000000), wk =   0.1111111

     Dense  grid:    26229 G-vectors     FFT dimensions: (  45,  45,  45)

     Largest allocated arrays     est. size (Mb)     dimensions
        Kohn-Sham Wavefunctions         0.20 Mb     (    3287,    4)
        NL pseudopotentials             0.80 Mb     (    3287,   16)
        Each V/rho on FFT grid          1.39 Mb     (   91125)
        Each G-vector array             0.20 Mb     (   26229)
        G-vector shells                 0.00 Mb     (     288)
     Largest temporary arrays     est. size (Mb)     dimensions
        Auxiliary wavefunctions         0.80 Mb     (    3287,   16)
        Each subspace H/S matrix        0.00 Mb     (      16,   16)
        Each <psi_i|beta_j> matrix      0.00 Mb     (      16,    4)
        Arrays for rho mixing          11.12 Mb     (   91125,    8)

     Initial potential from superposition of free atoms

     starting charge    7.99888, renormalised to    8.00000
     Starting wfc are    8 randomized atomic wfcs
     Checking if some PAW data can be deallocated... 

     total cpu time spent up to now is        2.2 secs

     per-process dynamical memory:    23.2 Mb

     Self-consistent Calculation

     iteration #  1     ecut=    80.00 Ry     beta=0.70
     Davidson diagonalization with overlap
     ethr =  1.00E-02,  avg # of iterations =  2.0

     Threshold (ethr) on eigenvalues was too large:
     Diagonalizing with lowered threshold

     Davidson diagonalization with overlap
     ethr =  7.32E-04,  avg # of iterations =  1.0

     total cpu time spent up to now is        5.6 secs

     total energy              =     -93.44977426 Ry
     Harris-Foulkes estimate   =     -93.46386572 Ry
     estimated scf accuracy    <       0.05798191 Ry

     iteration #  2     ecut=    80.00 Ry     beta=0.70
     Davidson diagonalization with overlap
     ethr =  7.25E-04,  avg # of iterations =  1.0

     total cpu time spent up to now is        7.2 secs

     total energy              =     -93.45192589 Ry
     Harris-Foulkes estimate   =     -93.45205988 Ry
     estimated scf accuracy    <       0.00248359 Ry

     iteration #  3     ecut=    80.00 Ry     beta=0.70
     Davidson diagonalization with overlap
     ethr =  3.10E-05,  avg # of iterations =  1.9

     total cpu time spent up to now is        9.0 secs

     total energy              =     -93.45219828 Ry
     Harris-Foulkes estimate   =     -93.45221387 Ry
     estimated scf accuracy    <       0.00005283 Ry

     iteration #  4     ecut=    80.00 Ry     beta=0.70
     Davidson diagonalization with overlap
     ethr =  6.60E-07,  avg # of iterations =  3.2

     total cpu time spent up to now is       11.3 secs

     total energy              =     -93.45222682 Ry
     Harris-Foulkes estimate   =     -93.45222741 Ry
     estimated scf accuracy    <       0.00000170 Ry

     iteration #  5     ecut=    80.00 Ry     beta=0.70
     Davidson diagonalization with overlap
     ethr =  2.13E-08,  avg # of iterations =  3.1

     total cpu time spent up to now is       13.6 secs

     End of self-consistent calculation

          k = 0.0000 0.0000 0.0000 (  3287 PWs)   bands (ev):

    -5.7477   6.2254   6.2254   6.2254

          k =-0.1667 0.1667-0.1667 (  3278 PWs)   bands (ev):

    -5.3859   3.8419   5.7741   5.7741

          k =-0.3333 0.3333-0.3333 (  3257 PWs)   bands (ev):

    -4.3686   0.8858   5.2233   5.2233

          k = 0.5000-0.5000 0.5000 (  3274 PWs)   bands (ev):

    -3.4120  -0.7520   5.0248   5.0248

          k = 0.0000 0.3333 0.0000 (  3259 PWs)   bands (ev):

    -5.2628   4.1860   5.0303   5.0303

          k =-0.1667 0.5000-0.1667 (  3265 PWs)   bands (ev):

    -4.4462   1.7855   4.2297   4.4764

          k = 0.6667-0.3333 0.6667 (  3267 PWs)   bands (ev):

    -3.2526  -0.3866   3.4449   4.4462

          k = 0.5000-0.1667 0.5000 (  3264 PWs)   bands (ev):

    -3.6383   0.2135   3.1738   4.9260

          k = 0.3333 0.0000 0.3333 (  3264 PWs)   bands (ev):

    -4.7967   2.5053   3.8090   5.6596

          k = 0.0000 0.6667 0.0000 (  3270 PWs)   bands (ev):

    -3.8405   1.2116   3.8039   3.8039

          k = 0.8333-0.1667 0.8333 (  3259 PWs)   bands (ev):

    -2.6748  -0.3445   2.5879   3.6672

          k = 0.6667-0.0000 0.6667 (  3236 PWs)   bands (ev):

    -2.4781  -0.5501   1.8059   4.1102

          k = 0.0000-1.0000 0.0000 (  3282 PWs)   bands (ev):

    -1.5974  -1.5973   3.3686   3.3686

          k = 0.6667-0.3333 1.0000 (  3253 PWs)   bands (ev):

    -3.4546   0.5777   2.6505   3.9269

          k = 0.5000-0.1667 0.8333 (  3254 PWs)   bands (ev):

    -2.4680  -0.6234   2.2101   3.4595

          k =-0.3333-1.0000 0.0000 (  3256 PWs)   bands (ev):

    -1.4771  -1.4770   2.5749   2.5750

     highest occupied level (ev):     6.2254

!    total energy              =     -93.45222749 Ry
     Harris-Foulkes estimate   =     -93.45222755 Ry
     estimated scf accuracy    <       0.00000005 Ry

     total all-electron energy =     -1160.143964 Ry

     The total energy is the sum of the following terms:

     one-electron contribution =       5.74033735 Ry
     hartree contribution      =       1.10146762 Ry
     xc contribution           =     -12.25843608 Ry
     ewald contribution        =     -16.80092957 Ry
     one-center paw contrib.   =     -71.23466681 Ry

     convergence has been achieved in   5 iterations

     Forces acting on atoms (Ry/au):

     atom    1 type  1   force =     0.00000000    0.00000000    0.00000000
     atom    2 type  1   force =     0.00000000    0.00000000    0.00000000

     Total force =     0.000000     Total SCF correction =     0.000000


     entering subroutine stress ...

          total   stress  (Ry/bohr**3)                   (kbar)     P=   19.63
   0.00013347   0.00000000   0.00000000         19.63      0.00      0.00
   0.00000000   0.00013347  -0.00000000          0.00     19.63     -0.00
   0.00000000  -0.00000000   0.00013347          0.00     -0.00     19.63


     Writing output data file pwscf.save
 
     init_run     :      1.92s CPU      1.93s WALL (       1 calls)
     electrons    :     11.31s CPU     11.36s WALL (       1 calls)
     forces       :      0.27s CPU      0.27s WALL (       1 calls)
     stress       :      0.80s CPU      0.80s WALL (       1 calls)

     Called by init_run:
     wfcinit      :      0.94s CPU      0.94s WALL (       1 calls)
     potinit      :      0.28s CPU      0.29s WALL (       1 calls)

     Called by electrons:
     c_bands      :      7.78s CPU      7.82s WALL (       6 calls)
     sum_band     :      1.91s CPU      1.92s WALL (       6 calls)
     v_of_rho     :      0.63s CPU      0.64s WALL (       6 calls)
     newd         :      0.27s CPU      0.27s WALL (       6 calls)
     mix_rho      :      0.05s CPU      0.05s WALL (       6 calls)

     Called by c_bands:
     init_us_2    :      0.28s CPU      0.29s WALL (     240 calls)
     cegterg      :      7.31s CPU      7.34s WALL (      96 calls)

     Called by *egterg:
     h_psi        :      7.67s CPU      7.71s WALL (     306 calls)
     s_psi        :      0.11s CPU      0.12s WALL (     306 calls)
     g_psi        :      0.05s CPU      0.05s WALL (     194 calls)
     cdiaghg      :      0.03s CPU      0.03s WALL (     274 calls)

     Called by h_psi:
     add_vuspsi   :      0.11s CPU      0.12s WALL (     306 calls)

     General routines
     calbec       :      0.19s CPU      0.18s WALL (     434 calls)
     fft          :      0.48s CPU      0.49s WALL (     105 calls)
     fftw         :      8.00s CPU      7.99s WALL (    2690 calls)
     davcio       :      0.00s CPU      0.00s WALL (      16 calls)
 
     Parallel routines
     fft_scatter  :      0.63s CPU      0.62s WALL (    2795 calls)

     PAW routines
     PAW_pot      :      0.95s CPU      0.95s WALL (       6 calls)
     PAW_symme    :      0.00s CPU      0.00s WALL (      12 calls)
 
     PWSCF        :    14.69s CPU        14.83s WALL

 
   This run was terminated on:  20:16:32  28Apr2015            

=------------------------------------------------------------------------------=
   JOB DONE.
=------------------------------------------------------------------------------=
