
     Program PWSCF v.5.1 starts on 28Apr2015 at 20:14:59 

     This program is part of the open-source Quantum ESPRESSO suite
     for quantum simulation of materials; please cite
         "P. Giannozzi et al., J. Phys.:Condens. Matter 21 395502 (2009);
          URL http://www.quantum-espresso.org", 
     in publications or presentations arising from this work. More details at
     http://www.quantum-espresso.org/quote

     Parallel version (MPI), running on     1 processors
     Waiting for input...
     Reading input from standard input
Warning: card &IONS ignored
Warning: card / ignored
Warning: card &CELL ignored
Warning: card / ignored

     Current dimensions of program PWSCF are:
     Max number of different atomic species (ntypx) = 10
     Max number of k-points (npk) =  40000
     Max angular momentum in pseudopotentials (lmaxx) =  3
               file Si.pbe-n-kjpaw_psl.0.1.UPF: wavefunction(s)  3S renormalized

     Subspace diagonalization in iterative solution of the eigenvalue problem:
     a serial algorithm will be used

 
     G-vector sticks info
     --------------------
     sticks:   dense  smooth     PW     G-vecs:    dense   smooth      PW
     Sum        1159    1159    349                26229    26229    4111
 


     bravais-lattice index     =            2
     lattice parameter (alat)  =      10.2600  a.u.
     unit-cell volume          =     270.0114 (a.u.)^3
     number of atoms/cell      =            2
     number of atomic types    =            1
     number of electrons       =         8.00
     number of Kohn-Sham states=            4
     kinetic-energy cutoff     =      80.0000  Ry
     charge density cutoff     =     320.0000  Ry
     convergence threshold     =      1.0E-06
     mixing beta               =       0.7000
     number of iterations used =            8  plain     mixing
     Exchange-correlation      =  SLA  PW   PBX  PBC ( 1  4  3  4 0)

     celldm(1)=  10.260000  celldm(2)=   0.000000  celldm(3)=   0.000000
     celldm(4)=   0.000000  celldm(5)=   0.000000  celldm(6)=   0.000000

     crystal axes: (cart. coord. in units of alat)
               a(1) = (  -0.500000   0.000000   0.500000 )  
               a(2) = (   0.000000   0.500000   0.500000 )  
               a(3) = (  -0.500000   0.500000   0.000000 )  

     reciprocal axes: (cart. coord. in units 2 pi/alat)
               b(1) = ( -1.000000 -1.000000  1.000000 )  
               b(2) = (  1.000000  1.000000  1.000000 )  
               b(3) = ( -1.000000  1.000000 -1.000000 )  


     PseudoPot. # 1 for Si read from file:
     ./Si.pbe-n-kjpaw_psl.0.1.UPF
     MD5 check sum: b9d333a40e496bef61db012f150758bf
     Pseudo is Projector augmented-wave + core cor, Zval =  4.0
     Generated using "atomic" code by A. Dal Corso  v.5.0.2 svn rev. 9415
     Shape of augmentation charge: PSQ
     Using radial grid of 1141 points,  4 beta functions with: 
                l(1) =   0
                l(2) =   0
                l(3) =   1
                l(4) =   1
     Q(r) pseudized with 0 coefficients 


     atomic species   valence    mass     pseudopotential
        Si             4.00    28.05500     Si( 1.00)

     24 Sym. Ops. (no inversion) found
          (note: 24 additional sym.ops. were found but ignored
           their fractional translations are incommensurate with FFT grid)


   Cartesian axes

     site n.     atom                  positions (alat units)
         1           Si  tau(   1) = (   0.0000000   0.0000000   0.0000000  )
         2           Si  tau(   2) = (  -0.2500000   0.2500000   0.2500000  )

     number of k points=    10
                       cart. coord. in units 2pi/alat
        k(    1) = (   0.0000000   0.0000000   0.0000000), wk =   0.0160000
        k(    2) = (  -0.2000000   0.2000000  -0.2000000), wk =   0.1280000
        k(    3) = (  -0.4000000   0.4000000  -0.4000000), wk =   0.1280000
        k(    4) = (   0.0000000   0.4000000   0.0000000), wk =   0.0960000
        k(    5) = (  -0.2000000   0.6000000  -0.2000000), wk =   0.3840000
        k(    6) = (   0.6000000  -0.2000000   0.6000000), wk =   0.3840000
        k(    7) = (   0.4000000   0.0000000   0.4000000), wk =   0.1920000
        k(    8) = (   0.0000000   0.8000000   0.0000000), wk =   0.0960000
        k(    9) = (   0.8000000   0.0000000   0.8000000), wk =   0.1920000
        k(   10) = (   0.6000000  -0.2000000   1.0000000), wk =   0.3840000

     Dense  grid:    26229 G-vectors     FFT dimensions: (  45,  45,  45)

     Largest allocated arrays     est. size (Mb)     dimensions
        Kohn-Sham Wavefunctions         0.20 Mb     (    3287,    4)
        NL pseudopotentials             0.80 Mb     (    3287,   16)
        Each V/rho on FFT grid          1.39 Mb     (   91125)
        Each G-vector array             0.20 Mb     (   26229)
        G-vector shells                 0.00 Mb     (     288)
     Largest temporary arrays     est. size (Mb)     dimensions
        Auxiliary wavefunctions         0.80 Mb     (    3287,   16)
        Each subspace H/S matrix        0.00 Mb     (      16,   16)
        Each <psi_i|beta_j> matrix      0.00 Mb     (      16,    4)
        Arrays for rho mixing          11.12 Mb     (   91125,    8)

     Initial potential from superposition of free atoms

     starting charge    7.99888, renormalised to    8.00000
     Starting wfc are    8 randomized atomic wfcs
     Checking if some PAW data can be deallocated... 

     total cpu time spent up to now is        1.9 secs

     per-process dynamical memory:    23.2 Mb

     Self-consistent Calculation

     iteration #  1     ecut=    80.00 Ry     beta=0.70
     Davidson diagonalization with overlap
     ethr =  1.00E-02,  avg # of iterations =  2.0

     Threshold (ethr) on eigenvalues was too large:
     Diagonalizing with lowered threshold

     Davidson diagonalization with overlap
     ethr =  7.51E-04,  avg # of iterations =  1.0

     total cpu time spent up to now is        4.1 secs

     total energy              =     -93.44676844 Ry
     Harris-Foulkes estimate   =     -93.46124511 Ry
     estimated scf accuracy    <       0.05930361 Ry

     iteration #  2     ecut=    80.00 Ry     beta=0.70
     Davidson diagonalization with overlap
     ethr =  7.41E-04,  avg # of iterations =  1.0

     total cpu time spent up to now is        5.3 secs

     total energy              =     -93.44895223 Ry
     Harris-Foulkes estimate   =     -93.44908816 Ry
     estimated scf accuracy    <       0.00256532 Ry

     iteration #  3     ecut=    80.00 Ry     beta=0.70
     Davidson diagonalization with overlap
     ethr =  3.21E-05,  avg # of iterations =  1.7

     total cpu time spent up to now is        6.5 secs

     total energy              =     -93.44921196 Ry
     Harris-Foulkes estimate   =     -93.44922550 Ry
     estimated scf accuracy    <       0.00005262 Ry

     iteration #  4     ecut=    80.00 Ry     beta=0.70
     Davidson diagonalization with overlap
     ethr =  6.58E-07,  avg # of iterations =  3.2

     total cpu time spent up to now is        8.2 secs

     End of self-consistent calculation

          k = 0.0000 0.0000 0.0000 (  3287 PWs)   bands (ev):

    -5.7419   6.2326   6.2326   6.2326

          k =-0.2000 0.2000-0.2000 (  3284 PWs)   bands (ev):

    -5.2236   3.2200   5.6516   5.6516

          k =-0.4000 0.4000-0.4000 (  3260 PWs)   bands (ev):

    -3.8584  -0.0470   5.1031   5.1031

          k = 0.0000 0.4000 0.0000 (  3255 PWs)   bands (ev):

    -5.0452   3.6078   4.7406   4.7406

          k =-0.2000 0.6000-0.2000 (  3271 PWs)   bands (ev):

    -3.9020   0.9192   3.6035   4.2317

          k = 0.6000-0.2000 0.6000 (  3244 PWs)   bands (ev):

    -3.0158  -0.4766   2.7935   4.5149

          k = 0.4000 0.0000 0.4000 (  3272 PWs)   bands (ev):

    -4.3907   1.7531   3.2255   5.3851

          k = 0.0000 0.8000 0.0000 (  3278 PWs)   bands (ev):

    -3.0251   0.0502   3.5321   3.5321

          k = 0.8000 0.0000 0.8000 (  3262 PWs)   bands (ev):

    -1.8177  -1.2126   2.1597   3.6511

          k = 0.6000-0.2000 1.0000 (  3269 PWs)   bands (ev):

    -2.5848  -0.3337   2.2449   3.2336

     highest occupied level (ev):     6.2326

!    total energy              =     -93.44924494 Ry
     Harris-Foulkes estimate   =     -93.44924521 Ry
     estimated scf accuracy    <       0.00000093 Ry

     total all-electron energy =     -1160.140981 Ry

     The total energy is the sum of the following terms:

     one-electron contribution =       5.74055694 Ry
     hartree contribution      =       1.10780306 Ry
     xc contribution           =     -12.26159823 Ry
     ewald contribution        =     -16.80092957 Ry
     one-center paw contrib.   =     -71.23507714 Ry

     convergence has been achieved in   4 iterations

     Forces acting on atoms (Ry/au):

     atom    1 type  1   force =     0.00000000    0.00000000    0.00000000
     atom    2 type  1   force =     0.00000000    0.00000000   -0.00000000

     Total force =     0.000000     Total SCF correction =     0.000000


     entering subroutine stress ...

          total   stress  (Ry/bohr**3)                   (kbar)     P=   21.49
   0.00014609   0.00000000  -0.00000000         21.49      0.00     -0.00
   0.00000000   0.00014609  -0.00000000          0.00     21.49     -0.00
  -0.00000000  -0.00000000   0.00014609         -0.00     -0.00     21.49


     Writing output data file pwscf.save
 
     init_run     :      1.56s CPU      1.58s WALL (       1 calls)
     electrons    :      6.27s CPU      6.95s WALL (       1 calls)
     forces       :      0.25s CPU      0.25s WALL (       1 calls)
     stress       :      0.70s CPU      0.70s WALL (       1 calls)

     Called by init_run:
     wfcinit      :      0.59s CPU      0.59s WALL (       1 calls)
     potinit      :      0.28s CPU      0.29s WALL (       1 calls)

     Called by electrons:
     c_bands      :      3.88s CPU      3.90s WALL (       5 calls)
     sum_band     :      1.10s CPU      1.10s WALL (       5 calls)
     v_of_rho     :      0.53s CPU      0.53s WALL (       5 calls)
     newd         :      0.23s CPU      0.23s WALL (       5 calls)
     mix_rho      :      0.04s CPU      0.04s WALL (       5 calls)

     Called by c_bands:
     init_us_2    :      0.14s CPU      0.16s WALL (     130 calls)
     cegterg      :      3.64s CPU      3.65s WALL (      50 calls)

     Called by *egterg:
     h_psi        :      3.95s CPU      3.94s WALL (     149 calls)
     s_psi        :      0.05s CPU      0.06s WALL (     149 calls)
     g_psi        :      0.02s CPU      0.03s WALL (      89 calls)
     cdiaghg      :      0.01s CPU      0.01s WALL (     129 calls)

     Called by h_psi:
     add_vuspsi   :      0.06s CPU      0.06s WALL (     149 calls)

     General routines
     calbec       :      0.10s CPU      0.10s WALL (     219 calls)
     fft          :      0.43s CPU      0.43s WALL (      92 calls)
     fftw         :      4.08s CPU      4.10s WALL (    1384 calls)
     davcio       :      0.00s CPU      0.00s WALL (      10 calls)
 
     Parallel routines
     fft_scatter  :      0.33s CPU      0.33s WALL (    1476 calls)

     PAW routines
     PAW_pot      :      0.79s CPU      0.79s WALL (       5 calls)
     PAW_symme    :      0.00s CPU      0.00s WALL (      10 calls)
 
     PWSCF        :     9.15s CPU         9.90s WALL

 
   This run was terminated on:  20:15: 9  28Apr2015            

=------------------------------------------------------------------------------=
   JOB DONE.
=------------------------------------------------------------------------------=
