
     Program PWSCF v.5.1 starts on 28Apr2015 at 20:19:57 

     This program is part of the open-source Quantum ESPRESSO suite
     for quantum simulation of materials; please cite
         "P. Giannozzi et al., J. Phys.:Condens. Matter 21 395502 (2009);
          URL http://www.quantum-espresso.org", 
     in publications or presentations arising from this work. More details at
     http://www.quantum-espresso.org/quote

     Parallel version (MPI), running on     1 processors
     Waiting for input...
     Reading input from standard input
Warning: card &IONS ignored
Warning: card / ignored
Warning: card &CELL ignored
Warning: card / ignored

     Current dimensions of program PWSCF are:
     Max number of different atomic species (ntypx) = 10
     Max number of k-points (npk) =  40000
     Max angular momentum in pseudopotentials (lmaxx) =  3
               file Si.pbe-n-kjpaw_psl.0.1.UPF: wavefunction(s)  3S renormalized

     Subspace diagonalization in iterative solution of the eigenvalue problem:
     a serial algorithm will be used

 
     G-vector sticks info
     --------------------
     sticks:   dense  smooth     PW     G-vecs:    dense   smooth      PW
     Sum        1159    1159    349                26229    26229    4279
 


     bravais-lattice index     =            2
     lattice parameter (alat)  =      10.2600  a.u.
     unit-cell volume          =     270.0114 (a.u.)^3
     number of atoms/cell      =            2
     number of atomic types    =            1
     number of electrons       =         8.00
     number of Kohn-Sham states=            4
     kinetic-energy cutoff     =      80.0000  Ry
     charge density cutoff     =     320.0000  Ry
     convergence threshold     =      1.0E-06
     mixing beta               =       0.7000
     number of iterations used =            8  plain     mixing
     Exchange-correlation      =  SLA  PW   PBX  PBC ( 1  4  3  4 0)

     celldm(1)=  10.260000  celldm(2)=   0.000000  celldm(3)=   0.000000
     celldm(4)=   0.000000  celldm(5)=   0.000000  celldm(6)=   0.000000

     crystal axes: (cart. coord. in units of alat)
               a(1) = (  -0.500000   0.000000   0.500000 )  
               a(2) = (   0.000000   0.500000   0.500000 )  
               a(3) = (  -0.500000   0.500000   0.000000 )  

     reciprocal axes: (cart. coord. in units 2 pi/alat)
               b(1) = ( -1.000000 -1.000000  1.000000 )  
               b(2) = (  1.000000  1.000000  1.000000 )  
               b(3) = ( -1.000000  1.000000 -1.000000 )  


     PseudoPot. # 1 for Si read from file:
     ./Si.pbe-n-kjpaw_psl.0.1.UPF
     MD5 check sum: b9d333a40e496bef61db012f150758bf
     Pseudo is Projector augmented-wave + core cor, Zval =  4.0
     Generated using "atomic" code by A. Dal Corso  v.5.0.2 svn rev. 9415
     Shape of augmentation charge: PSQ
     Using radial grid of 1141 points,  4 beta functions with: 
                l(1) =   0
                l(2) =   0
                l(3) =   1
                l(4) =   1
     Q(r) pseudized with 0 coefficients 


     atomic species   valence    mass     pseudopotential
        Si             4.00    28.05500     Si( 1.00)

     24 Sym. Ops. (no inversion) found
          (note: 24 additional sym.ops. were found but ignored
           their fractional translations are incommensurate with FFT grid)


   Cartesian axes

     site n.     atom                  positions (alat units)
         1           Si  tau(   1) = (   0.0000000   0.0000000   0.0000000  )
         2           Si  tau(   2) = (  -0.2500000   0.2500000   0.2500000  )

     number of k points=    29
                       cart. coord. in units 2pi/alat
        k(    1) = (   0.0000000   0.0000000   0.0000000), wk =   0.0039062
        k(    2) = (  -0.1250000   0.1250000  -0.1250000), wk =   0.0312500
        k(    3) = (  -0.2500000   0.2500000  -0.2500000), wk =   0.0312500
        k(    4) = (  -0.3750000   0.3750000  -0.3750000), wk =   0.0312500
        k(    5) = (   0.5000000  -0.5000000   0.5000000), wk =   0.0156250
        k(    6) = (   0.0000000   0.2500000   0.0000000), wk =   0.0234375
        k(    7) = (  -0.1250000   0.3750000  -0.1250000), wk =   0.0937500
        k(    8) = (  -0.2500000   0.5000000  -0.2500000), wk =   0.0937500
        k(    9) = (   0.6250000  -0.3750000   0.6250000), wk =   0.0937500
        k(   10) = (   0.5000000  -0.2500000   0.5000000), wk =   0.0937500
        k(   11) = (   0.3750000  -0.1250000   0.3750000), wk =   0.0937500
        k(   12) = (   0.2500000   0.0000000   0.2500000), wk =   0.0468750
        k(   13) = (   0.0000000   0.5000000   0.0000000), wk =   0.0234375
        k(   14) = (  -0.1250000   0.6250000  -0.1250000), wk =   0.0937500
        k(   15) = (   0.7500000  -0.2500000   0.7500000), wk =   0.0937500
        k(   16) = (   0.6250000  -0.1250000   0.6250000), wk =   0.0937500
        k(   17) = (   0.5000000   0.0000000   0.5000000), wk =   0.0468750
        k(   18) = (   0.0000000   0.7500000   0.0000000), wk =   0.0234375
        k(   19) = (   0.8750000  -0.1250000   0.8750000), wk =   0.0937500
        k(   20) = (   0.7500000   0.0000000   0.7500000), wk =   0.0468750
        k(   21) = (   0.0000000  -1.0000000   0.0000000), wk =   0.0117188
        k(   22) = (  -0.2500000   0.5000000   0.0000000), wk =   0.0937500
        k(   23) = (   0.6250000  -0.3750000   0.8750000), wk =   0.1875000
        k(   24) = (   0.5000000  -0.2500000   0.7500000), wk =   0.0937500
        k(   25) = (   0.7500000  -0.2500000   1.0000000), wk =   0.0937500
        k(   26) = (   0.6250000  -0.1250000   0.8750000), wk =   0.1875000
        k(   27) = (   0.5000000   0.0000000   0.7500000), wk =   0.0937500
        k(   28) = (  -0.2500000  -1.0000000   0.0000000), wk =   0.0468750
        k(   29) = (  -0.5000000  -1.0000000   0.0000000), wk =   0.0234375

     Dense  grid:    26229 G-vectors     FFT dimensions: (  45,  45,  45)

     Largest allocated arrays     est. size (Mb)     dimensions
        Kohn-Sham Wavefunctions         0.20 Mb     (    3287,    4)
        NL pseudopotentials             0.80 Mb     (    3287,   16)
        Each V/rho on FFT grid          1.39 Mb     (   91125)
        Each G-vector array             0.20 Mb     (   26229)
        G-vector shells                 0.00 Mb     (     288)
     Largest temporary arrays     est. size (Mb)     dimensions
        Auxiliary wavefunctions         0.80 Mb     (    3287,   16)
        Each subspace H/S matrix        0.00 Mb     (      16,   16)
        Each <psi_i|beta_j> matrix      0.00 Mb     (      16,    4)
        Arrays for rho mixing          11.12 Mb     (   91125,    8)

     Initial potential from superposition of free atoms

     starting charge    7.99888, renormalised to    8.00000
     Starting wfc are    8 randomized atomic wfcs
     Checking if some PAW data can be deallocated... 

     total cpu time spent up to now is        3.0 secs

     per-process dynamical memory:    24.7 Mb

     Self-consistent Calculation

     iteration #  1     ecut=    80.00 Ry     beta=0.70
     Davidson diagonalization with overlap
     ethr =  1.00E-02,  avg # of iterations =  2.0

     Threshold (ethr) on eigenvalues was too large:
     Diagonalizing with lowered threshold

     Davidson diagonalization with overlap
     ethr =  7.22E-04,  avg # of iterations =  1.0

     total cpu time spent up to now is        8.7 secs

     total energy              =     -93.45125486 Ry
     Harris-Foulkes estimate   =     -93.46509699 Ry
     estimated scf accuracy    <       0.05710264 Ry

     iteration #  2     ecut=    80.00 Ry     beta=0.70
     Davidson diagonalization with overlap
     ethr =  7.14E-04,  avg # of iterations =  1.0

     total cpu time spent up to now is       11.3 secs

     total energy              =     -93.45338548 Ry
     Harris-Foulkes estimate   =     -93.45351847 Ry
     estimated scf accuracy    <       0.00244666 Ry

     iteration #  3     ecut=    80.00 Ry     beta=0.70
     Davidson diagonalization with overlap
     ethr =  3.06E-05,  avg # of iterations =  2.0

     total cpu time spent up to now is       14.3 secs

     total energy              =     -93.45367726 Ry
     Harris-Foulkes estimate   =     -93.45369593 Ry
     estimated scf accuracy    <       0.00005423 Ry

     iteration #  4     ecut=    80.00 Ry     beta=0.70
     Davidson diagonalization with overlap
     ethr =  6.78E-07,  avg # of iterations =  3.0

     total cpu time spent up to now is       18.2 secs

     total energy              =     -93.45370401 Ry
     Harris-Foulkes estimate   =     -93.45370508 Ry
     estimated scf accuracy    <       0.00000285 Ry

     iteration #  5     ecut=    80.00 Ry     beta=0.70
     Davidson diagonalization with overlap
     ethr =  3.56E-08,  avg # of iterations =  2.6

     total cpu time spent up to now is       21.8 secs

     End of self-consistent calculation

          k = 0.0000 0.0000 0.0000 (  3287 PWs)   bands (ev):

    -5.7529   6.2190   6.2190   6.2190

          k =-0.1250 0.1250-0.1250 (  3278 PWs)   bands (ev):

    -5.5484   4.6189   5.9297   5.9297

          k =-0.2500 0.2500-0.2500 (  3275 PWs)   bands (ev):

    -4.9519   2.2890   5.4584   5.4584

          k =-0.3750 0.3750-0.3750 (  3266 PWs)   bands (ev):

    -4.0568   0.2671   5.1310   5.1310

          k = 0.5000-0.5000 0.5000 (  3274 PWs)   bands (ev):

    -3.4176  -0.7568   5.0190   5.0190

          k = 0.0000 0.2500 0.0000 (  3271 PWs)   bands (ev):

    -5.4795   4.8842   5.4114   5.4114

          k =-0.1250 0.3750-0.1250 (  3266 PWs)   bands (ev):

    -5.0101   2.9927   4.8991   4.9754

          k =-0.2500 0.5000-0.2500 (  3262 PWs)   bands (ev):

    -4.1939   0.9304   4.3833   4.6306

          k = 0.6250-0.3750 0.6250 (  3259 PWs)   bands (ev):

    -3.3310  -0.5349   3.9371   4.6552

          k = 0.5000-0.2500 0.5000 (  3265 PWs)   bands (ev):

    -3.5760  -0.1637   3.7552   4.9520

          k = 0.3750-0.1250 0.3750 (  3273 PWs)   bands (ev):

    -4.5007   1.5902   3.9061   5.4442

          k = 0.2500 0.0000 0.2500 (  3279 PWs)   bands (ev):

    -5.2117   3.5333   4.5888   5.9259

          k = 0.0000 0.5000 0.0000 (  3263 PWs)   bands (ev):

    -4.6693   2.7002   4.3271   4.3271

          k =-0.1250 0.6250-0.1250 (  3260 PWs)   bands (ev):

    -3.9583   1.2756   3.5457   4.0086

          k = 0.7500-0.2500 0.7500 (  3259 PWs)   bands (ev):

    -3.0308  -0.1680   2.6815   4.0117

          k = 0.6250-0.1250 0.6250 (  3251 PWs)   bands (ev):

    -2.8261  -0.4268   2.2224   4.3306

          k = 0.5000 0.0000 0.5000 (  3250 PWs)   bands (ev):

    -3.7060   0.7354   2.4626   4.8898

          k = 0.0000 0.7500 0.0000 (  3274 PWs)   bands (ev):

    -3.3550   0.4707   3.6097   3.6097

          k = 0.8750-0.1250 0.8750 (  3270 PWs)   bands (ev):

    -2.4565  -0.6153   2.7797   3.5334

          k = 0.7500 0.0000 0.7500 (  3258 PWs)   bands (ev):

    -2.0168  -1.0125   1.9126   3.7913

          k = 0.0000-1.0000 0.0000 (  3282 PWs)   bands (ev):

    -1.6030  -1.6029   3.3637   3.3637

          k =-0.2500 0.5000 0.0000 (  3270 PWs)   bands (ev):

    -4.4215   1.9271   3.5033   4.7900

          k = 0.6250-0.3750 0.8750 (  3263 PWs)   bands (ev):

    -3.5318   0.3737   2.8949   4.2878

          k = 0.5000-0.2500 0.7500 (  3252 PWs)   bands (ev):

    -2.8783  -0.5727   2.7660   4.0578

          k = 0.7500-0.2500 1.0000 (  3264 PWs)   bands (ev):

    -3.1560   0.2515   2.8534   3.4570

          k = 0.6250-0.1250 0.8750 (  3257 PWs)   bands (ev):

    -2.2799  -0.7174   2.1544   3.2560

          k = 0.5000 0.0000 0.7500 (  3259 PWs)   bands (ev):

    -2.6310  -0.3539   1.9874   3.6325

          k =-0.2500-1.0000 0.0000 (  3272 PWs)   bands (ev):

    -1.5248  -1.5247   2.7988   2.7988

          k =-0.5000-1.0000 0.0000 (  3268 PWs)   bands (ev):

    -1.4387  -1.4386   2.3623   2.3623

     highest occupied level (ev):     6.2190

!    total energy              =     -93.45370481 Ry
     Harris-Foulkes estimate   =     -93.45370488 Ry
     estimated scf accuracy    <       0.00000007 Ry

     total all-electron energy =     -1160.145441 Ry

     The total energy is the sum of the following terms:

     one-electron contribution =       5.74063998 Ry
     hartree contribution      =       1.09784610 Ry
     xc contribution           =     -12.25665537 Ry
     ewald contribution        =     -16.80092957 Ry
     one-center paw contrib.   =     -71.23460595 Ry

     convergence has been achieved in   5 iterations

     Forces acting on atoms (Ry/au):

     atom    1 type  1   force =    -0.00000000    0.00000000    0.00000000
     atom    2 type  1   force =     0.00000000   -0.00000000   -0.00000000

     Total force =     0.000000     Total SCF correction =     0.000000


     entering subroutine stress ...

          total   stress  (Ry/bohr**3)                   (kbar)     P=   18.96
   0.00012889   0.00000000  -0.00000000         18.96      0.00     -0.00
   0.00000000   0.00012889  -0.00000000          0.00     18.96     -0.00
   0.00000000  -0.00000000   0.00012889          0.00     -0.00     18.96


     Writing output data file pwscf.save
 
     init_run     :      2.68s CPU      2.69s WALL (       1 calls)
     electrons    :     18.76s CPU     18.85s WALL (       1 calls)
     forces       :      0.32s CPU      0.32s WALL (       1 calls)
     stress       :      1.03s CPU      1.03s WALL (       1 calls)

     Called by init_run:
     wfcinit      :      1.68s CPU      1.69s WALL (       1 calls)
     potinit      :      0.28s CPU      0.29s WALL (       1 calls)

     Called by electrons:
     c_bands      :     13.93s CPU     13.99s WALL (       6 calls)
     sum_band     :      3.21s CPU      3.23s WALL (       6 calls)
     v_of_rho     :      0.63s CPU      0.64s WALL (       6 calls)
     newd         :      0.27s CPU      0.27s WALL (       6 calls)
     mix_rho      :      0.05s CPU      0.05s WALL (       6 calls)

     Called by c_bands:
     init_us_2    :      0.51s CPU      0.53s WALL (     435 calls)
     cegterg      :     13.08s CPU     13.13s WALL (     174 calls)

     Called by *egterg:
     h_psi        :     13.76s CPU     13.80s WALL (     538 calls)
     s_psi        :      0.20s CPU      0.21s WALL (     538 calls)
     g_psi        :      0.08s CPU      0.09s WALL (     335 calls)
     cdiaghg      :      0.06s CPU      0.05s WALL (     480 calls)

     Called by h_psi:
     add_vuspsi   :      0.20s CPU      0.21s WALL (     538 calls)

     General routines
     calbec       :      0.35s CPU      0.34s WALL (     770 calls)
     fft          :      0.48s CPU      0.49s WALL (     105 calls)
     fftw         :     14.29s CPU     14.32s WALL (    4826 calls)
     davcio       :      0.00s CPU      0.00s WALL (      29 calls)
 
     Parallel routines
     fft_scatter  :      1.09s CPU      1.10s WALL (    4931 calls)

     PAW routines
     PAW_pot      :      0.95s CPU      0.95s WALL (       6 calls)
     PAW_symme    :      0.00s CPU      0.00s WALL (      12 calls)
 
     PWSCF        :    23.22s CPU        23.42s WALL

 
   This run was terminated on:  20:20:20  28Apr2015            

=------------------------------------------------------------------------------=
   JOB DONE.
=------------------------------------------------------------------------------=
