
     Program PWSCF v.5.1 starts on 28Apr2015 at 20:16:32 

     This program is part of the open-source Quantum ESPRESSO suite
     for quantum simulation of materials; please cite
         "P. Giannozzi et al., J. Phys.:Condens. Matter 21 395502 (2009);
          URL http://www.quantum-espresso.org", 
     in publications or presentations arising from this work. More details at
     http://www.quantum-espresso.org/quote

     Parallel version (MPI), running on     1 processors
     Waiting for input...
     Reading input from standard input
Warning: card &IONS ignored
Warning: card / ignored
Warning: card &CELL ignored
Warning: card / ignored

     Current dimensions of program PWSCF are:
     Max number of different atomic species (ntypx) = 10
     Max number of k-points (npk) =  40000
     Max angular momentum in pseudopotentials (lmaxx) =  3
               file Si.pbe-n-kjpaw_psl.0.1.UPF: wavefunction(s)  3S renormalized

     Subspace diagonalization in iterative solution of the eigenvalue problem:
     a serial algorithm will be used

 
     G-vector sticks info
     --------------------
     sticks:   dense  smooth     PW     G-vecs:    dense   smooth      PW
     Sum        1285    1285    379                30923    30923    4957
 


     bravais-lattice index     =            2
     lattice parameter (alat)  =      10.2600  a.u.
     unit-cell volume          =     270.0114 (a.u.)^3
     number of atoms/cell      =            2
     number of atomic types    =            1
     number of electrons       =         8.00
     number of Kohn-Sham states=            4
     kinetic-energy cutoff     =      90.0000  Ry
     charge density cutoff     =     360.0000  Ry
     convergence threshold     =      1.0E-06
     mixing beta               =       0.7000
     number of iterations used =            8  plain     mixing
     Exchange-correlation      =  SLA  PW   PBX  PBC ( 1  4  3  4 0)

     celldm(1)=  10.260000  celldm(2)=   0.000000  celldm(3)=   0.000000
     celldm(4)=   0.000000  celldm(5)=   0.000000  celldm(6)=   0.000000

     crystal axes: (cart. coord. in units of alat)
               a(1) = (  -0.500000   0.000000   0.500000 )  
               a(2) = (   0.000000   0.500000   0.500000 )  
               a(3) = (  -0.500000   0.500000   0.000000 )  

     reciprocal axes: (cart. coord. in units 2 pi/alat)
               b(1) = ( -1.000000 -1.000000  1.000000 )  
               b(2) = (  1.000000  1.000000  1.000000 )  
               b(3) = ( -1.000000  1.000000 -1.000000 )  


     PseudoPot. # 1 for Si read from file:
     ./Si.pbe-n-kjpaw_psl.0.1.UPF
     MD5 check sum: b9d333a40e496bef61db012f150758bf
     Pseudo is Projector augmented-wave + core cor, Zval =  4.0
     Generated using "atomic" code by A. Dal Corso  v.5.0.2 svn rev. 9415
     Shape of augmentation charge: PSQ
     Using radial grid of 1141 points,  4 beta functions with: 
                l(1) =   0
                l(2) =   0
                l(3) =   1
                l(4) =   1
     Q(r) pseudized with 0 coefficients 


     atomic species   valence    mass     pseudopotential
        Si             4.00    28.05500     Si( 1.00)

     24 Sym. Ops. (no inversion) found
          (note: 24 additional sym.ops. were found but ignored
           their fractional translations are incommensurate with FFT grid)


   Cartesian axes

     site n.     atom                  positions (alat units)
         1           Si  tau(   1) = (   0.0000000   0.0000000   0.0000000  )
         2           Si  tau(   2) = (  -0.2500000   0.2500000   0.2500000  )

     number of k points=    16
                       cart. coord. in units 2pi/alat
        k(    1) = (   0.0000000   0.0000000   0.0000000), wk =   0.0092593
        k(    2) = (  -0.1666667   0.1666667  -0.1666667), wk =   0.0740741
        k(    3) = (  -0.3333333   0.3333333  -0.3333333), wk =   0.0740741
        k(    4) = (   0.5000000  -0.5000000   0.5000000), wk =   0.0370370
        k(    5) = (   0.0000000   0.3333333   0.0000000), wk =   0.0555556
        k(    6) = (  -0.1666667   0.5000000  -0.1666667), wk =   0.2222222
        k(    7) = (   0.6666667  -0.3333333   0.6666667), wk =   0.2222222
        k(    8) = (   0.5000000  -0.1666667   0.5000000), wk =   0.2222222
        k(    9) = (   0.3333333   0.0000000   0.3333333), wk =   0.1111111
        k(   10) = (   0.0000000   0.6666667   0.0000000), wk =   0.0555556
        k(   11) = (   0.8333333  -0.1666667   0.8333333), wk =   0.2222222
        k(   12) = (   0.6666667  -0.0000000   0.6666667), wk =   0.1111111
        k(   13) = (   0.0000000  -1.0000000   0.0000000), wk =   0.0277778
        k(   14) = (   0.6666667  -0.3333333   1.0000000), wk =   0.2222222
        k(   15) = (   0.5000000  -0.1666667   0.8333333), wk =   0.2222222
        k(   16) = (  -0.3333333  -1.0000000   0.0000000), wk =   0.1111111

     Dense  grid:    30923 G-vectors     FFT dimensions: (  45,  45,  45)

     Largest allocated arrays     est. size (Mb)     dimensions
        Kohn-Sham Wavefunctions         0.24 Mb     (    3924,    4)
        NL pseudopotentials             0.96 Mb     (    3924,   16)
        Each V/rho on FFT grid          1.39 Mb     (   91125)
        Each G-vector array             0.24 Mb     (   30923)
        G-vector shells                 0.00 Mb     (     322)
     Largest temporary arrays     est. size (Mb)     dimensions
        Auxiliary wavefunctions         0.96 Mb     (    3924,   16)
        Each subspace H/S matrix        0.00 Mb     (      16,   16)
        Each <psi_i|beta_j> matrix      0.00 Mb     (      16,    4)
        Arrays for rho mixing          11.12 Mb     (   91125,    8)

     Initial potential from superposition of free atoms

     starting charge    7.99888, renormalised to    8.00000
     Starting wfc are    8 randomized atomic wfcs
     Checking if some PAW data can be deallocated... 

     total cpu time spent up to now is        2.3 secs

     per-process dynamical memory:    24.3 Mb

     Self-consistent Calculation

     iteration #  1     ecut=    90.00 Ry     beta=0.70
     Davidson diagonalization with overlap
     ethr =  1.00E-02,  avg # of iterations =  2.0

     Threshold (ethr) on eigenvalues was too large:
     Diagonalizing with lowered threshold

     Davidson diagonalization with overlap
     ethr =  7.33E-04,  avg # of iterations =  1.1

     total cpu time spent up to now is        5.9 secs

     total energy              =     -93.44976994 Ry
     Harris-Foulkes estimate   =     -93.46386435 Ry
     estimated scf accuracy    <       0.05797772 Ry

     iteration #  2     ecut=    90.00 Ry     beta=0.70
     Davidson diagonalization with overlap
     ethr =  7.25E-04,  avg # of iterations =  1.0

     total cpu time spent up to now is        7.6 secs

     total energy              =     -93.45192804 Ry
     Harris-Foulkes estimate   =     -93.45206079 Ry
     estimated scf accuracy    <       0.00248464 Ry

     iteration #  3     ecut=    90.00 Ry     beta=0.70
     Davidson diagonalization with overlap
     ethr =  3.11E-05,  avg # of iterations =  1.9

     total cpu time spent up to now is        9.4 secs

     total energy              =     -93.45219993 Ry
     Harris-Foulkes estimate   =     -93.45221503 Ry
     estimated scf accuracy    <       0.00005230 Ry

     iteration #  4     ecut=    90.00 Ry     beta=0.70
     Davidson diagonalization with overlap
     ethr =  6.54E-07,  avg # of iterations =  3.2

     total cpu time spent up to now is       11.8 secs

     total energy              =     -93.45223003 Ry
     Harris-Foulkes estimate   =     -93.45223045 Ry
     estimated scf accuracy    <       0.00000128 Ry

     iteration #  5     ecut=    90.00 Ry     beta=0.70
     Davidson diagonalization with overlap
     ethr =  1.60E-08,  avg # of iterations =  2.9

     total cpu time spent up to now is       14.2 secs

     End of self-consistent calculation

          k = 0.0000 0.0000 0.0000 (  3839 PWs)   bands (ev):

    -5.7478   6.2253   6.2253   6.2253

          k =-0.1667 0.1667-0.1667 (  3861 PWs)   bands (ev):

    -5.3860   3.8418   5.7740   5.7740

          k =-0.3333 0.3333-0.3333 (  3873 PWs)   bands (ev):

    -4.3687   0.8857   5.2232   5.2232

          k = 0.5000-0.5000 0.5000 (  3852 PWs)   bands (ev):

    -3.4121  -0.7520   5.0247   5.0247

          k = 0.0000 0.3333 0.0000 (  3871 PWs)   bands (ev):

    -5.2629   4.1859   5.0302   5.0302

          k =-0.1667 0.5000-0.1667 (  3889 PWs)   bands (ev):

    -4.4463   1.7854   4.2297   4.4763

          k = 0.6667-0.3333 0.6667 (  3896 PWs)   bands (ev):

    -3.2527  -0.3867   3.4448   4.4461

          k = 0.5000-0.1667 0.5000 (  3891 PWs)   bands (ev):

    -3.6384   0.2134   3.1737   4.9259

          k = 0.3333 0.0000 0.3333 (  3873 PWs)   bands (ev):

    -4.7968   2.5052   3.8090   5.6595

          k = 0.0000 0.6667 0.0000 (  3924 PWs)   bands (ev):

    -3.8406   1.2115   3.8038   3.8038

          k = 0.8333-0.1667 0.8333 (  3904 PWs)   bands (ev):

    -2.6749  -0.3446   2.5878   3.6672

          k = 0.6667-0.0000 0.6667 (  3893 PWs)   bands (ev):

    -2.4782  -0.5502   1.8059   4.1101

          k = 0.0000-1.0000 0.0000 (  3892 PWs)   bands (ev):

    -1.5975  -1.5974   3.3686   3.3686

          k = 0.6667-0.3333 1.0000 (  3895 PWs)   bands (ev):

    -3.4547   0.5776   2.6505   3.9269

          k = 0.5000-0.1667 0.8333 (  3892 PWs)   bands (ev):

    -2.4681  -0.6235   2.2100   3.4594

          k =-0.3333-1.0000 0.0000 (  3900 PWs)   bands (ev):

    -1.4772  -1.4771   2.5749   2.5749

     highest occupied level (ev):     6.2253

!    total energy              =     -93.45223058 Ry
     Harris-Foulkes estimate   =     -93.45223062 Ry
     estimated scf accuracy    <       0.00000004 Ry

     total all-electron energy =     -1160.143967 Ry

     The total energy is the sum of the following terms:

     one-electron contribution =       5.74031969 Ry
     hartree contribution      =       1.10149171 Ry
     xc contribution           =     -12.25844289 Ry
     ewald contribution        =     -16.80092957 Ry
     one-center paw contrib.   =     -71.23466952 Ry

     convergence has been achieved in   5 iterations

     Forces acting on atoms (Ry/au):

     atom    1 type  1   force =     0.00000000   -0.00000000    0.00000000
     atom    2 type  1   force =     0.00000000    0.00000000   -0.00000000

     Total force =     0.000000     Total SCF correction =     0.000000


     entering subroutine stress ...

          total   stress  (Ry/bohr**3)                   (kbar)     P=   19.63
   0.00013344   0.00000000   0.00000000         19.63      0.00      0.00
   0.00000000   0.00013344  -0.00000000          0.00     19.63     -0.00
   0.00000000   0.00000000   0.00013344          0.00      0.00     19.63


     Writing output data file pwscf.save
 
     init_run     :      2.00s CPU      2.02s WALL (       1 calls)
     electrons    :     11.81s CPU     11.86s WALL (       1 calls)
     forces       :      0.30s CPU      0.30s WALL (       1 calls)
     stress       :      0.92s CPU      0.93s WALL (       1 calls)

     Called by init_run:
     wfcinit      :      0.96s CPU      0.97s WALL (       1 calls)
     potinit      :      0.28s CPU      0.29s WALL (       1 calls)

     Called by electrons:
     c_bands      :      8.14s CPU      8.17s WALL (       6 calls)
     sum_band     :      2.00s CPU      2.01s WALL (       6 calls)
     v_of_rho     :      0.65s CPU      0.65s WALL (       6 calls)
     newd         :      0.32s CPU      0.32s WALL (       6 calls)
     mix_rho      :      0.05s CPU      0.06s WALL (       6 calls)

     Called by c_bands:
     init_us_2    :      0.35s CPU      0.35s WALL (     240 calls)
     cegterg      :      7.58s CPU      7.60s WALL (      96 calls)

     Called by *egterg:
     h_psi        :      7.85s CPU      7.87s WALL (     305 calls)
     s_psi        :      0.15s CPU      0.14s WALL (     305 calls)
     g_psi        :      0.06s CPU      0.06s WALL (     193 calls)
     cdiaghg      :      0.03s CPU      0.03s WALL (     273 calls)

     Called by h_psi:
     add_vuspsi   :      0.14s CPU      0.14s WALL (     305 calls)

     General routines
     calbec       :      0.22s CPU      0.22s WALL (     433 calls)
     fft          :      0.50s CPU      0.51s WALL (     105 calls)
     fftw         :      8.07s CPU      8.09s WALL (    2694 calls)
     davcio       :      0.00s CPU      0.00s WALL (      16 calls)
 
     Parallel routines
     fft_scatter  :      0.59s CPU      0.63s WALL (    2799 calls)

     PAW routines
     PAW_pot      :      0.95s CPU      0.95s WALL (       6 calls)
     PAW_symme    :      0.00s CPU      0.00s WALL (      12 calls)
 
     PWSCF        :    15.44s CPU        15.58s WALL

 
   This run was terminated on:  20:16:48  28Apr2015            

=------------------------------------------------------------------------------=
   JOB DONE.
=------------------------------------------------------------------------------=
