 argument  1 = N2.nw
                                         
                                         


              Northwest Computational Chemistry Package (NWChem) 6.3
              ------------------------------------------------------


                    Environmental Molecular Sciences Laboratory
                       Pacific Northwest National Laboratory
                                Richland, WA 99352

                              Copyright (c) 1994-2012
                       Pacific Northwest National Laboratory
                            Battelle Memorial Institute

             NWChem is an open-source computational chemistry package
                        distributed under the terms of the
                      Educational Community License (ECL) 2.0
             A copy of the license is included with this distribution
                              in the LICENSE.TXT file

                                  ACKNOWLEDGMENT
                                  --------------

            This software and its documentation were developed at the
            EMSL at Pacific Northwest National Laboratory, a multiprogram
            national laboratory, operated for the U.S. Department of Energy
            by Battelle under Contract Number DE-AC05-76RL01830. Support
            for this work was provided by the Department of Energy Office
            of Biological and Environmental Research, Office of Basic
            Energy Sciences, and the Office of Advanced Scientific Computing.


           Job information
           ---------------

    hostname        = ChensPro.local
    program         = nwchem
    date            = Wed Apr 15 10:36:09 2015

    compiled        = Sat_Jul_20_13:52:43_2013
    source          = /Users/shyuepingong/Software/nwchem-6.3
    nwchem branch   = 6.3
    nwchem revision = 24277
    ga revision     = 10379
    input           = N2.nw
    prefix          = N2.
    data base       = ./N2.db
    status          = startup
    nproc           =        1
    time left       =     -1s



           Memory information
           ------------------

    heap     =   32768001 doubles =    250.0 Mbytes
    stack    =   32768001 doubles =    250.0 Mbytes
    global   =   65536000 doubles =    500.0 Mbytes (distinct from heap & stack)
    total    =  131072002 doubles =   1000.0 Mbytes
    verify   = yes
    hardfail = no 


           Directory information
           ---------------------

  0 permanent = .
  0 scratch   = .




                                NWChem Input Module
                                -------------------



 Scaling coordinates for geometry "geometry" by  1.889725989
 (inverse scale =  0.529177249)

 ORDER OF PRIMARY AXIS IS BEING SET TO 4
 D4H symmetry detected

          ------
          auto-z
          ------


                             Geometry "geometry" -> ""
                             -------------------------

 Output coordinates in angstroms (scale by  1.889725989 to convert to a.u.)

  No.       Tag          Charge          X              Y              Z
 ---- ---------------- ---------- -------------- -------------- --------------
    1 N                    7.0000     0.00000000     0.00000000    -0.55000000
    2 N                    7.0000     0.00000000     0.00000000     0.55000000

      Atomic Mass 
      ----------- 

      N                 14.003070


 Effective nuclear repulsion energy (a.u.)      23.5724410918

            Nuclear Dipole moment (a.u.) 
            ----------------------------
        X                 Y               Z
 ---------------- ---------------- ----------------
     0.0000000000     0.0000000000     0.0000000000

      Symmetry information
      --------------------

 Group name             D4h       
 Group number             28
 Group order              16
 No. of unique centers     1

      Symmetry unique atoms

     1



                                Z-matrix (autoz)
                                -------- 

 Units are Angstrom for bonds and degrees for angles

      Type          Name      I     J     K     L     M      Value
      ----------- --------  ----- ----- ----- ----- ----- ----------
    1 Stretch                  1     2                       1.10000


            XYZ format geometry
            -------------------
     2
 geometry
 N                     0.00000000     0.00000000    -0.55000000
 N                     0.00000000     0.00000000     0.55000000

 ==============================================================================
                                internuclear distances
 ------------------------------------------------------------------------------
       center one      |      center two      | atomic units |  angstroms
 ------------------------------------------------------------------------------
    2 N                |   1 N                |     2.07870  |     1.10000
 ------------------------------------------------------------------------------
                         number of included internuclear distances:          1
 ==============================================================================



                                  N2 dft optimize
                                  ---------------
  library name resolved from: environment
  library file name is: </Users/chenzheng/Google Drive/nano266/resources/nwchem_basis/>
  
                      Basis "ao basis" -> "" (cartesian)
                      -----
  N (Nitrogen)
  ------------
            Exponent  Coefficients 
       -------------- ---------------------------------------------------------
  1 S  4.17351100E+03  0.001835
  1 S  6.27457900E+02  0.013995
  1 S  1.42902100E+02  0.068587
  1 S  4.02343300E+01  0.232241
  1 S  1.28202100E+01  0.469070
  1 S  4.39043700E+00  0.360455

  2 S  1.16263580E+01 -0.114961
  2 S  2.71628000E+00 -0.169118
  2 S  7.72218000E-01  1.145852

  3 P  1.16263580E+01  0.067580
  3 P  2.71628000E+00  0.323907
  3 P  7.72218000E-01  0.740895

  4 S  2.12031300E-01  1.000000

  5 P  2.12031300E-01  1.000000



 Summary of "ao basis" -> "" (cartesian)
 ------------------------------------------------------------------------------
       Tag                 Description            Shells   Functions and Types
 ---------------- ------------------------------  ------  ---------------------
 N                           6-31G                   5        9   3s2p




                           NWChem Geometry Optimization
                           ----------------------------




                                  N2 dft optimize


 maximum gradient threshold         (gmax) =   0.000450
 rms gradient threshold             (grms) =   0.000300
 maximum cartesian step threshold   (xmax) =   0.001800
 rms cartesian step threshold       (xrms) =   0.001200
 fixed trust radius                (trust) =   0.300000
 maximum step size to saddle      (sadstp) =   0.100000
 energy precision                  (eprec) =   5.0D-06
 maximum number of steps          (nptopt) =   20
 initial hessian option           (inhess) =    0
 line search option               (linopt) =    1
 hessian update option            (modupd) =    1
 saddle point option              (modsad) =    0
 initial eigen-mode to follow     (moddir) =    0
 initial variable to follow       (vardir) =    0
 follow first negative mode     (firstneg) =    T
 apply conjugacy                    (opcg) =    F
 source of zmatrix                         =   autoz   


          -------------------
          Energy Minimization
          -------------------


 Names of Z-matrix variables 
    1         

 Variables with the same non-blank name are constrained to be equal


 Using diagonal initial Hessian 
 Scaling for Hessian diagonals: bonds = 1.00  angles = 0.25  torsions = 0.10

          --------
          Step   0
          --------


                         Geometry "geometry" -> "geometry"
                         ---------------------------------

 Output coordinates in angstroms (scale by  1.889725989 to convert to a.u.)

  No.       Tag          Charge          X              Y              Z
 ---- ---------------- ---------- -------------- -------------- --------------
    1 N                    7.0000     0.00000000     0.00000000    -0.55000000
    2 N                    7.0000     0.00000000     0.00000000     0.55000000

      Atomic Mass 
      ----------- 

      N                 14.003070


 Effective nuclear repulsion energy (a.u.)      23.5724410918

            Nuclear Dipole moment (a.u.) 
            ----------------------------
        X                 Y               Z
 ---------------- ---------------- ----------------
     0.0000000000     0.0000000000     0.0000000000

      Symmetry information
      --------------------

 Group name             D4h       
 Group number             28
 Group order              16
 No. of unique centers     1

      Symmetry unique atoms

     1


                                 NWChem DFT Module
                                 -----------------


                                  N2 dft optimize


  Caching 1-el integrals 

            General Information
            -------------------
          SCF calculation type: DFT
          Wavefunction type:  closed shell.
          No. of atoms     :     2
          No. of electrons :    14
           Alpha electrons :     7
            Beta electrons :     7
          Charge           :     0
          Spin multiplicity:     1
          Use of symmetry is: on ; symmetry adaption is: on 
          Maximum number of iterations:  30
          AO basis - number of functions:    18
                     number of shells:    10
          Convergence on energy requested: 1.00D-06
          Convergence on density requested: 1.00D-05
          Convergence on gradient requested: 5.00D-04

              XC Information
              --------------
                         B3LYP Method XC Potential
                     Hartree-Fock (Exact) Exchange  0.200          
                        Slater Exchange Functional  0.800 local    
                    Becke 1988 Exchange Functional  0.720 non-local
              Lee-Yang-Parr Correlation Functional  0.810          
                  VWN I RPA Correlation Functional  0.190 local    

             Grid Information
             ----------------
          Grid used for XC integration:  medium    
          Radial quadrature: Mura-Knowles        
          Angular quadrature: Lebedev. 
          Tag              B.-S. Rad. Rad. Pts. Rad. Cut. Ang. Pts.
          ---              ---------- --------- --------- ---------
          N                   0.65       49           5.0       434
          Grid pruning is: on 
          Number of quadrature shells:    49
          Spatial weights used:  Erf1

          Convergence Information
          -----------------------
          Convergence aids based upon iterative change in 
          total energy or number of iterations. 
          Levelshifting, if invoked, occurs when the 
          HOMO/LUMO gap drops below (HL_TOL): 1.00D-02
          DIIS, if invoked, will attempt to extrapolate 
          using up to (NFOCK): 10 stored Fock matrices.

                    Damping( 0%)  Levelshifting(0.5)       DIIS
                  --------------- ------------------- ---------------
          dE  on:    start            ASAP                start   
          dE off:    2 iters         30 iters            30 iters 


      Screening Tolerance Information
      -------------------------------
          Density screening/tol_rho: 1.00D-10
          AO Gaussian exp screening on grid/accAOfunc:  14
          CD Gaussian exp screening on grid/accCDfunc:  20
          XC Gaussian exp screening on grid/accXCfunc:  20
          Schwarz screening/accCoul: 1.00D-08


      Superposition of Atomic Density Guess
      -------------------------------------

 Sum of atomic energies:        -108.58747649

      Non-variational initial energy
      ------------------------------

 Total energy =    -109.087152
 1-e energy   =    -193.804074
 2-e energy   =      61.144481
 HOMO         =      -0.421019
 LUMO         =       0.030151


      Symmetry analysis of molecular orbitals - initial
      -------------------------------------------------

  Numbering of irreducible representations: 

     1 a1g         2 a1u         3 a2g         4 a2u         5 b1g     
     6 b1u         7 b2g         8 b2u         9 eg         10 eu      

  Orbital symmetries:

     1 a1g         2 a2u         3 a1g         4 a2u         5 eu      
     6 eu          7 a1g         8 eg          9 eg         10 a2u     
    11 a1g        12 eu         13 eu         14 a1g        15 eg      
    16 eg         17 a2u     

   Time after variat. SCF:      0.1
   Time prior to 1st pass:      0.1

 #quartets = 1.044D+03 #integrals = 3.290D+03 #direct =  0.0% #cached =100.0%


 Integral file          = ./N2.aoints.0
 Record size in doubles =  65536        No. of integs per rec  =  43688
 Max. records in memory =      2        Max. records in file   = 185629
 No. of bits per label  =      8        No. of bits per value  =     64


 Grid_pts file          = ./N2.gridpts.0
 Record size in doubles =  12289        No. of grid_pts per rec  =   3070
 Max. records in memory =      9        Max. recs in file   =    989946


           Memory utilization after 1st SCF pass: 
           Heap Space remaining (MW):       32.52            32524944
          Stack Space remaining (MW):       32.77            32767795

   convergence    iter        energy       DeltaE   RMS-Dens  Diis-err    time
 ---------------- ----- ----------------- --------- --------- ---------  ------
 d= 0,ls=0.0,diis     1   -109.4466608434 -1.33D+02  3.30D-02  2.08D-01     0.1
 d= 0,ls=0.0,diis     2   -109.4649521643 -1.83D-02  9.23D-03  3.98D-02     0.2
 d= 0,ls=0.0,diis     3   -109.4699751509 -5.02D-03  1.30D-03  1.10D-03     0.2
 d= 0,ls=0.0,diis     4   -109.4701181691 -1.43D-04  5.79D-05  3.67D-07     0.2
 d= 0,ls=0.0,diis     5   -109.4701182171 -4.80D-08  1.54D-06  3.82D-10     0.2


         Total DFT energy =     -109.470118217109
      One electron energy =     -194.091098898567
           Coulomb energy =       74.741261853546
    Exchange-Corr. energy =      -13.692722263892
 Nuclear repulsion energy =       23.572441091805

 Numeric. integr. density =       14.000000592062

     Total iterative time =      0.1s



                  Occupations of the irreducible representations
                  ----------------------------------------------

                     irrep           alpha         beta
                     --------     --------     --------
                     a1g               3.0          3.0
                     a1u               0.0          0.0
                     a2g               0.0          0.0
                     a2u               2.0          2.0
                     b1g               0.0          0.0
                     b1u               0.0          0.0
                     b2g               0.0          0.0
                     b2u               0.0          0.0
                     eg                0.0          0.0
                     eu                2.0          2.0


                       DFT Final Molecular Orbital Analysis
                       ------------------------------------

 Vector    1  Occ=2.000000D+00  E=-1.445654D+01  Symmetry=a1g
              MO Center= -6.4D-18, -2.7D-18, -1.2D-12, r^2= 3.2D-01
   Bfn.  Coefficient  Atom+Function         Bfn.  Coefficient  Atom+Function  
  ----- ------------  ---------------      ----- ------------  ---------------
     1      0.703482  1 N  s                 10      0.703482  2 N  s          

 Vector    2  Occ=2.000000D+00  E=-1.445499D+01  Symmetry=a2u
              MO Center=  1.3D-18,  2.6D-17,  1.2D-12, r^2= 3.2D-01
   Bfn.  Coefficient  Atom+Function         Bfn.  Coefficient  Atom+Function  
  ----- ------------  ---------------      ----- ------------  ---------------
     1      0.703797  1 N  s                 10     -0.703797  2 N  s          

 Vector    3  Occ=2.000000D+00  E=-1.177763D+00  Symmetry=a1g
              MO Center=  4.8D-34,  2.0D-34, -2.8D-17, r^2= 4.2D-01
   Bfn.  Coefficient  Atom+Function         Bfn.  Coefficient  Atom+Function  
  ----- ------------  ---------------      ----- ------------  ---------------
     2      0.353897  1 N  s                 11      0.353897  2 N  s          
     5      0.253673  1 N  pz                14     -0.253673  2 N  pz         
     6      0.170354  1 N  s                 15      0.170354  2 N  s          
     1     -0.157124  1 N  s                 10     -0.157124  2 N  s          

 Vector    4  Occ=2.000000D+00  E=-5.451147D-01  Symmetry=a2u
              MO Center=  3.9D-17,  5.7D-17,  3.9D-16, r^2= 1.3D+00
   Bfn.  Coefficient  Atom+Function         Bfn.  Coefficient  Atom+Function  
  ----- ------------  ---------------      ----- ------------  ---------------
     6      0.603646  1 N  s                 15     -0.603646  2 N  s          
     2      0.342334  1 N  s                 11     -0.342334  2 N  s          
     5     -0.188602  1 N  pz                14     -0.188602  2 N  pz         
     1     -0.150460  1 N  s                 10      0.150460  2 N  s          

 Vector    5  Occ=2.000000D+00  E=-4.775348D-01  Symmetry=eu
              MO Center=  4.4D-15, -4.6D-15,  2.8D-17, r^2= 9.3D-01
   Bfn.  Coefficient  Atom+Function         Bfn.  Coefficient  Atom+Function  
  ----- ------------  ---------------      ----- ------------  ---------------
     4     -0.333194  1 N  py                13     -0.333194  2 N  py         
     3      0.321037  1 N  px                12      0.321037  2 N  px         
     8     -0.169950  1 N  py                17     -0.169950  2 N  py         
     7      0.163749  1 N  px                16      0.163749  2 N  px         

 Vector    6  Occ=2.000000D+00  E=-4.775348D-01  Symmetry=eu
              MO Center=  4.6D-16,  4.5D-16, -2.4D-16, r^2= 9.3D-01
   Bfn.  Coefficient  Atom+Function         Bfn.  Coefficient  Atom+Function  
  ----- ------------  ---------------      ----- ------------  ---------------
     3      0.333194  1 N  px                12      0.333194  2 N  px         
     4      0.321037  1 N  py                13      0.321037  2 N  py         
     7      0.169950  1 N  px                16      0.169950  2 N  px         
     8      0.163749  1 N  py                17      0.163749  2 N  py         

 Vector    7  Occ=2.000000D+00  E=-4.231996D-01  Symmetry=a1g
              MO Center= -4.9D-15,  4.1D-15, -8.9D-16, r^2= 1.3D+00
   Bfn.  Coefficient  Atom+Function         Bfn.  Coefficient  Atom+Function  
  ----- ------------  ---------------      ----- ------------  ---------------
     5      0.464395  1 N  pz                14     -0.464395  2 N  pz         
     6     -0.344685  1 N  s                 15     -0.344685  2 N  s          
     9      0.173779  1 N  pz                18     -0.173779  2 N  pz         

 Vector    8  Occ=0.000000D+00  E=-3.269234D-02  Symmetry=eg
              MO Center= -6.7D-23,  3.9D-23,  1.1D-16, r^2= 1.2D+00
   Bfn.  Coefficient  Atom+Function         Bfn.  Coefficient  Atom+Function  
  ----- ------------  ---------------      ----- ------------  ---------------
     7      0.481370  1 N  px                16     -0.481370  2 N  px         
     3      0.445162  1 N  px                12     -0.445162  2 N  px         
     8     -0.279460  1 N  py                17      0.279460  2 N  py         
     4     -0.258440  1 N  py                13      0.258440  2 N  py         

 Vector    9  Occ=0.000000D+00  E=-3.269234D-02  Symmetry=eg
              MO Center=  1.3D-17,  2.2D-17,  2.8D-16, r^2= 1.2D+00
   Bfn.  Coefficient  Atom+Function         Bfn.  Coefficient  Atom+Function  
  ----- ------------  ---------------      ----- ------------  ---------------
     8      0.481370  1 N  py                17     -0.481370  2 N  py         
     4      0.445162  1 N  py                13     -0.445162  2 N  py         
     7      0.279460  1 N  px                16     -0.279460  2 N  px         
     3      0.258440  1 N  px                12     -0.258440  2 N  px         

 Vector   10  Occ=0.000000D+00  E= 4.167619D-01  Symmetry=a2u
              MO Center=  2.2D-16, -4.4D-16, -4.4D-16, r^2= 3.0D+00
   Bfn.  Coefficient  Atom+Function         Bfn.  Coefficient  Atom+Function  
  ----- ------------  ---------------      ----- ------------  ---------------
     6      3.873191  1 N  s                 15     -3.873191  2 N  s          
     9      2.548231  1 N  pz                18      2.548231  2 N  pz         
     2      0.244198  1 N  s                 11     -0.244198  2 N  s          
     5      0.150164  1 N  pz                14      0.150164  2 N  pz         

 Vector   11  Occ=0.000000D+00  E= 5.998458D-01  Symmetry=a1g
              MO Center= -1.4D-17,  9.7D-18, -8.9D-16, r^2= 2.4D+00
   Bfn.  Coefficient  Atom+Function         Bfn.  Coefficient  Atom+Function  
  ----- ------------  ---------------      ----- ------------  ---------------
     9      1.004013  1 N  pz                18     -1.004013  2 N  pz         
     5     -0.476561  1 N  pz                14      0.476561  2 N  pz         
     2     -0.319783  1 N  s                 11     -0.319783  2 N  s          

 Vector   12  Occ=0.000000D+00  E= 6.100016D-01  Symmetry=eu
              MO Center=  7.6D-17,  9.0D-17, -7.8D-16, r^2= 1.8D+00
   Bfn.  Coefficient  Atom+Function         Bfn.  Coefficient  Atom+Function  
  ----- ------------  ---------------      ----- ------------  ---------------
     4      0.508412  1 N  py                13      0.508412  2 N  py         
     8     -0.482311  1 N  py                17     -0.482311  2 N  py         
     3      0.425220  1 N  px                12      0.425220  2 N  px         
     7     -0.403390  1 N  px                16     -0.403390  2 N  px         

 Vector   13  Occ=0.000000D+00  E= 6.100016D-01  Symmetry=eu
              MO Center= -4.5D-16,  3.8D-16, -4.9D-16, r^2= 1.8D+00
   Bfn.  Coefficient  Atom+Function         Bfn.  Coefficient  Atom+Function  
  ----- ------------  ---------------      ----- ------------  ---------------
     3      0.508412  1 N  px                12      0.508412  2 N  px         
     7     -0.482311  1 N  px                16     -0.482311  2 N  px         
     4     -0.425220  1 N  py                13     -0.425220  2 N  py         
     8      0.403390  1 N  py                17      0.403390  2 N  py         

 Vector   14  Occ=0.000000D+00  E= 7.306951D-01  Symmetry=a1g
              MO Center=  3.9D-16, -4.7D-16, -3.1D-15, r^2= 1.8D+00
   Bfn.  Coefficient  Atom+Function         Bfn.  Coefficient  Atom+Function  
  ----- ------------  ---------------      ----- ------------  ---------------
     2      1.058255  1 N  s                 11      1.058255  2 N  s          
     6     -0.905037  1 N  s                 15     -0.905037  2 N  s          
     5     -0.232515  1 N  pz                14      0.232515  2 N  pz         

 Vector   15  Occ=0.000000D+00  E= 7.481554D-01  Symmetry=eg
              MO Center= -2.4D-16, -8.6D-18,  1.0D-15, r^2= 2.2D+00
   Bfn.  Coefficient  Atom+Function         Bfn.  Coefficient  Atom+Function  
  ----- ------------  ---------------      ----- ------------  ---------------
     7      1.203970  1 N  px                16     -1.203970  2 N  px         
     3     -0.689791  1 N  px                12      0.689791  2 N  px         

 Vector   16  Occ=0.000000D+00  E= 7.481554D-01  Symmetry=eg
              MO Center= -1.0D-16,  2.9D-15,  1.0D-15, r^2= 2.2D+00
   Bfn.  Coefficient  Atom+Function         Bfn.  Coefficient  Atom+Function  
  ----- ------------  ---------------      ----- ------------  ---------------
     8      1.203970  1 N  py                17     -1.203970  2 N  py         
     4     -0.689791  1 N  py                13      0.689791  2 N  py         

 Vector   17  Occ=0.000000D+00  E= 8.508064D-01  Symmetry=a2u
              MO Center=  7.8D-17, -2.6D-15,  2.9D-15, r^2= 1.2D+00
   Bfn.  Coefficient  Atom+Function         Bfn.  Coefficient  Atom+Function  
  ----- ------------  ---------------      ----- ------------  ---------------
     6      1.159917  1 N  s                 15     -1.159917  2 N  s          
     5      0.922263  1 N  pz                14      0.922263  2 N  pz         
     2     -0.213709  1 N  s                 11      0.213709  2 N  s          


 center of mass
 --------------
 x =   0.00000000 y =   0.00000000 z =   0.00000000

 moments of inertia (a.u.)
 ------------------
          30.253547438217           0.000000000000           0.000000000000
           0.000000000000          30.253547438217           0.000000000000
           0.000000000000           0.000000000000           0.000000000000

     Multipole analysis of the density
     ---------------------------------

     L   x y z        total         alpha         beta         nuclear
     -   - - -        -----         -----         ----         -------
     0   0 0 0     -0.000000     -7.000000     -7.000000     14.000000

     1   1 0 0     -0.000000     -0.000000     -0.000000      0.000000
     1   0 1 0     -0.000000     -0.000000     -0.000000      0.000000
     1   0 0 1      0.000000      0.000000      0.000000      0.000000

     2   2 0 0     -7.447271     -3.723635     -3.723635      0.000000
     2   1 1 0      0.000000      0.000000      0.000000      0.000000
     2   1 0 1     -0.000000     -0.000000     -0.000000      0.000000
     2   0 2 0     -7.447271     -3.723635     -3.723635      0.000000
     2   0 1 1     -0.000000     -0.000000     -0.000000      0.000000
     2   0 0 2     -9.149952    -12.136705    -12.136705     15.123457


 Parallel integral file used       1 records with       0 large values



                            NWChem DFT Gradient Module
                            --------------------------


                                  N2 dft optimize



  charge          =   0.00
  wavefunction    = closed shell

  Using symmetry


                         DFT ENERGY GRADIENTS

    atom               coordinates                        gradient
                 x          y          z           x          y          z
   1 N       0.000000   0.000000  -1.039349    0.000000   0.000000   0.054382
   2 N       0.000000   0.000000   1.039349    0.000000   0.000000  -0.054382

                 ----------------------------------------
                 |  Time  |  1-e(secs)   |  2-e(secs)   |
                 ----------------------------------------
                 |  CPU   |       0.00   |       0.03   |
                 ----------------------------------------
                 |  WALL  |       0.00   |       0.03   |
                 ----------------------------------------

@ Step       Energy      Delta E   Gmax     Grms     Xrms     Xmax   Walltime
@ ---- ---------------- -------- -------- -------- -------- -------- --------
@    0    -109.47011822  0.0D+00  0.05438  0.05438  0.00000  0.00000      0.3
                                                                    



                                Z-matrix (autoz)
                                -------- 

 Units are Angstrom for bonds and degrees for angles

      Type          Name      I     J     K     L     M      Value     Gradient
      ----------- --------  ----- ----- ----- ----- ----- ---------- ----------
    1 Stretch                  1     2                       1.10000   -0.05438


                                 NWChem DFT Module
                                 -----------------


                                  N2 dft optimize


  Caching 1-el integrals 

            General Information
            -------------------
          SCF calculation type: DFT
          Wavefunction type:  closed shell.
          No. of atoms     :     2
          No. of electrons :    14
           Alpha electrons :     7
            Beta electrons :     7
          Charge           :     0
          Spin multiplicity:     1
          Use of symmetry is: on ; symmetry adaption is: on 
          Maximum number of iterations:  30
          AO basis - number of functions:    18
                     number of shells:    10
          Convergence on energy requested: 1.00D-06
          Convergence on density requested: 1.00D-05
          Convergence on gradient requested: 5.00D-04

              XC Information
              --------------
                         B3LYP Method XC Potential
                     Hartree-Fock (Exact) Exchange  0.200          
                        Slater Exchange Functional  0.800 local    
                    Becke 1988 Exchange Functional  0.720 non-local
              Lee-Yang-Parr Correlation Functional  0.810          
                  VWN I RPA Correlation Functional  0.190 local    

             Grid Information
             ----------------
          Grid used for XC integration:  medium    
          Radial quadrature: Mura-Knowles        
          Angular quadrature: Lebedev. 
          Tag              B.-S. Rad. Rad. Pts. Rad. Cut. Ang. Pts.
          ---              ---------- --------- --------- ---------
          N                   0.65       49           5.0       434
          Grid pruning is: on 
          Number of quadrature shells:    49
          Spatial weights used:  Erf1

          Convergence Information
          -----------------------
          Convergence aids based upon iterative change in 
          total energy or number of iterations. 
          Levelshifting, if invoked, occurs when the 
          HOMO/LUMO gap drops below (HL_TOL): 1.00D-02
          DIIS, if invoked, will attempt to extrapolate 
          using up to (NFOCK): 10 stored Fock matrices.

                    Damping( 0%)  Levelshifting(0.5)       DIIS
                  --------------- ------------------- ---------------
          dE  on:    start            ASAP                start   
          dE off:    2 iters         30 iters            30 iters 


      Screening Tolerance Information
      -------------------------------
          Density screening/tol_rho: 1.00D-10
          AO Gaussian exp screening on grid/accAOfunc:  14
          CD Gaussian exp screening on grid/accCDfunc:  20
          XC Gaussian exp screening on grid/accXCfunc:  20
          Schwarz screening/accCoul: 1.00D-08


 Loading old vectors from job with title :

N2 dft optimize


      Symmetry analysis of molecular orbitals - initial
      -------------------------------------------------

  Numbering of irreducible representations: 

     1 a1g         2 a1u         3 a2g         4 a2u         5 b1g     
     6 b1u         7 b2g         8 b2u         9 eg         10 eu      

  Orbital symmetries:

     1 a1g         2 a2u         3 a1g         4 a2u         5 eu      
     6 eu          7 a1g         8 eg          9 eg         10 a2u     
    11 a1g        12 eu         13 eu         14 a1g        15 eg      
    16 eg         17 a2u     

   Time after variat. SCF:      0.2
   Time prior to 1st pass:      0.2

 #quartets = 1.044D+03 #integrals = 3.290D+03 #direct =  0.0% #cached =100.0%


 Integral file          = ./N2.aoints.0
 Record size in doubles =  65536        No. of integs per rec  =  43688
 Max. records in memory =      2        Max. records in file   = 185629
 No. of bits per label  =      8        No. of bits per value  =     64


 Grid_pts file          = ./N2.gridpts.0
 Record size in doubles =  12289        No. of grid_pts per rec  =   3070
 Max. records in memory =      9        Max. recs in file   =    989946


           Memory utilization after 1st SCF pass: 
           Heap Space remaining (MW):       32.52            32524944
          Stack Space remaining (MW):       32.77            32767795

   convergence    iter        energy       DeltaE   RMS-Dens  Diis-err    time
 ---------------- ----- ----------------- --------- --------- ---------  ------
 d= 0,ls=0.0,diis     1   -109.4677869310 -1.32D+02  5.46D-03  9.61D-03     0.3
 d= 0,ls=0.0,diis     2   -109.4691741674 -1.39D-03  1.85D-03  1.38D-03     0.3
 d= 0,ls=0.0,diis     3   -109.4693391256 -1.65D-04  3.46D-04  8.47D-05     0.3
 d= 0,ls=0.0,diis     4   -109.4693503658 -1.12D-05  8.23D-06  1.10D-08     0.3
 d= 0,ls=0.0,diis     5   -109.4693503673 -1.46D-09  3.43D-07  1.67D-11     0.3


         Total DFT energy =     -109.469350367292
      One electron energy =     -192.333975115267
           Coulomb energy =       73.849774099066
    Exchange-Corr. energy =      -13.639042624804
 Nuclear repulsion energy =       22.653893273714

 Numeric. integr. density =       14.000000149134

     Total iterative time =      0.1s



                  Occupations of the irreducible representations
                  ----------------------------------------------

                     irrep           alpha         beta
                     --------     --------     --------
                     a1g               3.0          3.0
                     a1u               0.0          0.0
                     a2g               0.0          0.0
                     a2u               2.0          2.0
                     b1g               0.0          0.0
                     b1u               0.0          0.0
                     b2g               0.0          0.0
                     b2u               0.0          0.0
                     eg                0.0          0.0
                     eu                2.0          2.0


                       DFT Final Molecular Orbital Analysis
                       ------------------------------------

 Vector    1  Occ=2.000000D+00  E=-1.446537D+01  Symmetry=a1g
              MO Center=  1.8D-17, -1.7D-18,  7.2D-13, r^2= 3.5D-01
   Bfn.  Coefficient  Atom+Function         Bfn.  Coefficient  Atom+Function  
  ----- ------------  ---------------      ----- ------------  ---------------
     1      0.703585  1 N  s                 10      0.703585  2 N  s          

 Vector    2  Occ=2.000000D+00  E=-1.446437D+01  Symmetry=a2u
              MO Center=  2.4D-18, -1.5D-18, -7.2D-13, r^2= 3.5D-01
   Bfn.  Coefficient  Atom+Function         Bfn.  Coefficient  Atom+Function  
  ----- ------------  ---------------      ----- ------------  ---------------
     1      0.703750  1 N  s                 10     -0.703750  2 N  s          

 Vector    3  Occ=2.000000D+00  E=-1.149174D+00  Symmetry=a1g
              MO Center=  2.7D-33, -2.6D-34, -2.8D-17, r^2= 4.5D-01
   Bfn.  Coefficient  Atom+Function         Bfn.  Coefficient  Atom+Function  
  ----- ------------  ---------------      ----- ------------  ---------------
     2      0.353179  1 N  s                 11      0.353179  2 N  s          
     5      0.245258  1 N  pz                14     -0.245258  2 N  pz         
     6      0.181535  1 N  s                 15      0.181535  2 N  s          
     1     -0.154395  1 N  s                 10     -0.154395  2 N  s          

 Vector    4  Occ=2.000000D+00  E=-5.580574D-01  Symmetry=a2u
              MO Center=  9.2D-17,  3.5D-17, -5.6D-17, r^2= 1.3D+00
   Bfn.  Coefficient  Atom+Function         Bfn.  Coefficient  Atom+Function  
  ----- ------------  ---------------      ----- ------------  ---------------
     6      0.590189  1 N  s                 15     -0.590189  2 N  s          
     2      0.347774  1 N  s                 11     -0.347774  2 N  s          
     5     -0.178361  1 N  pz                14     -0.178361  2 N  pz         
     1     -0.152520  1 N  s                 10      0.152520  2 N  s          

 Vector    5  Occ=2.000000D+00  E=-4.636394D-01  Symmetry=eu
              MO Center=  2.6D-17,  1.2D-17,  2.8D-16, r^2= 9.6D-01
   Bfn.  Coefficient  Atom+Function         Bfn.  Coefficient  Atom+Function  
  ----- ------------  ---------------      ----- ------------  ---------------
     3      0.417320  1 N  px                12      0.417320  2 N  px         
     7      0.222649  1 N  px                16      0.222649  2 N  px         
     4      0.191580  1 N  py                13      0.191580  2 N  py         

 Vector    6  Occ=2.000000D+00  E=-4.636394D-01  Symmetry=eu
              MO Center= -1.8D-18,  3.8D-18,  4.2D-16, r^2= 9.6D-01
   Bfn.  Coefficient  Atom+Function         Bfn.  Coefficient  Atom+Function  
  ----- ------------  ---------------      ----- ------------  ---------------
     4      0.417320  1 N  py                13      0.417320  2 N  py         
     8      0.222649  1 N  py                17      0.222649  2 N  py         
     3     -0.191580  1 N  px                12     -0.191580  2 N  px         

 Vector    7  Occ=2.000000D+00  E=-4.217282D-01  Symmetry=a1g
              MO Center=  2.6D-17, -4.5D-17, -2.5D-16, r^2= 1.3D+00
   Bfn.  Coefficient  Atom+Function         Bfn.  Coefficient  Atom+Function  
  ----- ------------  ---------------      ----- ------------  ---------------
     5      0.465764  1 N  pz                14     -0.465764  2 N  pz         
     6     -0.335718  1 N  s                 15     -0.335718  2 N  s          
     9      0.181801  1 N  pz                18     -0.181801  2 N  pz         

 Vector    8  Occ=0.000000D+00  E=-5.320425D-02  Symmetry=eg
              MO Center=  2.7D-22,  2.9D-22, -2.4D-16, r^2= 1.2D+00
   Bfn.  Coefficient  Atom+Function         Bfn.  Coefficient  Atom+Function  
  ----- ------------  ---------------      ----- ------------  ---------------
     8      0.387621  1 N  py                17     -0.387621  2 N  py         
     4      0.380403  1 N  py                13     -0.380403  2 N  py         
     7      0.355330  1 N  px                16     -0.355330  2 N  px         
     3      0.348713  1 N  px                12     -0.348713  2 N  px         

 Vector    9  Occ=0.000000D+00  E=-5.320425D-02  Symmetry=eg
              MO Center= -5.2D-19,  4.8D-19, -3.7D-16, r^2= 1.2D+00
   Bfn.  Coefficient  Atom+Function         Bfn.  Coefficient  Atom+Function  
  ----- ------------  ---------------      ----- ------------  ---------------
     7      0.387621  1 N  px                16     -0.387621  2 N  px         
     3      0.380403  1 N  px                12     -0.380403  2 N  px         
     8     -0.355330  1 N  py                17      0.355330  2 N  py         
     4     -0.348713  1 N  py                13      0.348713  2 N  py         

 Vector   10  Occ=0.000000D+00  E= 3.895284D-01  Symmetry=a2u
              MO Center=  1.2D-16,  4.6D-18, -5.8D-15, r^2= 2.7D+00
   Bfn.  Coefficient  Atom+Function         Bfn.  Coefficient  Atom+Function  
  ----- ------------  ---------------      ----- ------------  ---------------
     6      3.282381  1 N  s                 15     -3.282381  2 N  s          
     9      2.281706  1 N  pz                18      2.281706  2 N  pz         
     2      0.250965  1 N  s                 11     -0.250965  2 N  s          
     5      0.232166  1 N  pz                14      0.232166  2 N  pz         

 Vector   11  Occ=0.000000D+00  E= 6.164739D-01  Symmetry=eu
              MO Center=  7.6D-18,  2.9D-17, -8.3D-17, r^2= 1.8D+00
   Bfn.  Coefficient  Atom+Function         Bfn.  Coefficient  Atom+Function  
  ----- ------------  ---------------      ----- ------------  ---------------
     4      0.649758  1 N  py                13      0.649758  2 N  py         
     8     -0.609037  1 N  py                17     -0.609037  2 N  py         
     3      0.168623  1 N  px                12      0.168623  2 N  px         
     7     -0.158055  1 N  px                16     -0.158055  2 N  px         

 Vector   12  Occ=0.000000D+00  E= 6.164739D-01  Symmetry=eu
              MO Center= -5.2D-17,  1.4D-17, -2.8D-17, r^2= 1.8D+00
   Bfn.  Coefficient  Atom+Function         Bfn.  Coefficient  Atom+Function  
  ----- ------------  ---------------      ----- ------------  ---------------
     3      0.649758  1 N  px                12      0.649758  2 N  px         
     7     -0.609037  1 N  px                16     -0.609037  2 N  px         
     4     -0.168623  1 N  py                13     -0.168623  2 N  py         
     8      0.158055  1 N  py                17      0.158055  2 N  py         

 Vector   13  Occ=0.000000D+00  E= 6.175012D-01  Symmetry=a1g
              MO Center= -1.2D-17, -1.2D-17, -1.1D-16, r^2= 2.4D+00
   Bfn.  Coefficient  Atom+Function         Bfn.  Coefficient  Atom+Function  
  ----- ------------  ---------------      ----- ------------  ---------------
     9      0.982003  1 N  pz                18     -0.982003  2 N  pz         
     5     -0.511962  1 N  pz                14      0.511962  2 N  pz         
     2     -0.275818  1 N  s                 11     -0.275818  2 N  s          

 Vector   14  Occ=0.000000D+00  E= 7.293720D-01  Symmetry=a1g
              MO Center= -1.2D-17, -4.0D-19,  7.0D-15, r^2= 1.8D+00
   Bfn.  Coefficient  Atom+Function         Bfn.  Coefficient  Atom+Function  
  ----- ------------  ---------------      ----- ------------  ---------------
     2      1.075000  1 N  s                 11      1.075000  2 N  s          
     6     -0.910335  1 N  s                 15     -0.910335  2 N  s          
     5     -0.193740  1 N  pz                14      0.193740  2 N  pz         

 Vector   15  Occ=0.000000D+00  E= 7.399838D-01  Symmetry=eg
              MO Center= -5.4D-15, -1.3D-15,  3.3D-16, r^2= 2.2D+00
   Bfn.  Coefficient  Atom+Function         Bfn.  Coefficient  Atom+Function  
  ----- ------------  ---------------      ----- ------------  ---------------
     7      1.146476  1 N  px                16     -1.146476  2 N  px         
     3     -0.663177  1 N  px                12      0.663177  2 N  px         
     8      0.275493  1 N  py                17     -0.275493  2 N  py         
     4     -0.159359  1 N  py                13      0.159359  2 N  py         

 Vector   16  Occ=0.000000D+00  E= 7.399838D-01  Symmetry=eg
              MO Center= -3.2D-18,  1.3D-17,  2.2D-16, r^2= 2.2D+00
   Bfn.  Coefficient  Atom+Function         Bfn.  Coefficient  Atom+Function  
  ----- ------------  ---------------      ----- ------------  ---------------
     8      1.146476  1 N  py                17     -1.146476  2 N  py         
     4     -0.663177  1 N  py                13      0.663177  2 N  py         
     7     -0.275493  1 N  px                16      0.275493  2 N  px         
     3      0.159359  1 N  px                12     -0.159359  2 N  px         

 Vector   17  Occ=0.000000D+00  E= 7.894955D-01  Symmetry=a2u
              MO Center=  5.1D-15,  1.2D-15,  0.0D+00, r^2= 1.4D+00
   Bfn.  Coefficient  Atom+Function         Bfn.  Coefficient  Atom+Function  
  ----- ------------  ---------------      ----- ------------  ---------------
     5      0.901499  1 N  pz                14      0.901499  2 N  pz         
     9     -0.481604  1 N  pz                18     -0.481604  2 N  pz         
     6      0.267314  1 N  s                 15     -0.267314  2 N  s          
     2     -0.157986  1 N  s                 11      0.157986  2 N  s          


 center of mass
 --------------
 x =   0.00000000 y =   0.00000000 z =   0.00000000

 moments of inertia (a.u.)
 ------------------
          32.756668370041           0.000000000000           0.000000000000
           0.000000000000          32.756668370041           0.000000000000
           0.000000000000           0.000000000000           0.000000000000

     Multipole analysis of the density
     ---------------------------------

     L   x y z        total         alpha         beta         nuclear
     -   - - -        -----         -----         ----         -------
     0   0 0 0     -0.000000     -7.000000     -7.000000     14.000000

     1   1 0 0     -0.000000     -0.000000     -0.000000      0.000000
     1   0 1 0     -0.000000     -0.000000     -0.000000      0.000000
     1   0 0 1     -0.000000     -0.000000     -0.000000      0.000000

     2   2 0 0     -7.549688     -3.774844     -3.774844      0.000000
     2   1 1 0     -0.000000     -0.000000     -0.000000      0.000000
     2   1 0 1      0.000000      0.000000      0.000000      0.000000
     2   0 2 0     -7.549688     -3.774844     -3.774844      0.000000
     2   0 1 1      0.000000      0.000000      0.000000      0.000000
     2   0 0 2     -9.193715    -12.784229    -12.784229     16.374743


 Parallel integral file used       1 records with       0 large values

 Line search: 
     step= 1.00 grad=-4.6D-03 hess= 5.4D-03 energy=   -109.469350 mode=bracket 
 new step= 0.43                   predicted energy=   -109.471100

          --------
          Step   1
          --------


                         Geometry "geometry" -> "geometry"
                         ---------------------------------

 Output coordinates in angstroms (scale by  1.889725989 to convert to a.u.)

  No.       Tag          Charge          X              Y              Z
 ---- ---------------- ---------- -------------- -------------- --------------
    1 N                    7.0000     0.00000000     0.00000000    -0.55955051
    2 N                    7.0000     0.00000000     0.00000000     0.55955051

      Atomic Mass 
      ----------- 

      N                 14.003070


 Effective nuclear repulsion energy (a.u.)      23.1701023811

            Nuclear Dipole moment (a.u.) 
            ----------------------------
        X                 Y               Z
 ---------------- ---------------- ----------------
     0.0000000000     0.0000000000     0.0000000000

      Symmetry information
      --------------------

 Group name             D4h       
 Group number             28
 Group order              16
 No. of unique centers     1

      Symmetry unique atoms

     1


                                 NWChem DFT Module
                                 -----------------


                                  N2 dft optimize


  Caching 1-el integrals 

            General Information
            -------------------
          SCF calculation type: DFT
          Wavefunction type:  closed shell.
          No. of atoms     :     2
          No. of electrons :    14
           Alpha electrons :     7
            Beta electrons :     7
          Charge           :     0
          Spin multiplicity:     1
          Use of symmetry is: on ; symmetry adaption is: on 
          Maximum number of iterations:  30
          AO basis - number of functions:    18
                     number of shells:    10
          Convergence on energy requested: 1.00D-06
          Convergence on density requested: 1.00D-05
          Convergence on gradient requested: 5.00D-04

              XC Information
              --------------
                         B3LYP Method XC Potential
                     Hartree-Fock (Exact) Exchange  0.200          
                        Slater Exchange Functional  0.800 local    
                    Becke 1988 Exchange Functional  0.720 non-local
              Lee-Yang-Parr Correlation Functional  0.810          
                  VWN I RPA Correlation Functional  0.190 local    

             Grid Information
             ----------------
          Grid used for XC integration:  medium    
          Radial quadrature: Mura-Knowles        
          Angular quadrature: Lebedev. 
          Tag              B.-S. Rad. Rad. Pts. Rad. Cut. Ang. Pts.
          ---              ---------- --------- --------- ---------
          N                   0.65       49           5.0       434
          Grid pruning is: on 
          Number of quadrature shells:    49
          Spatial weights used:  Erf1

          Convergence Information
          -----------------------
          Convergence aids based upon iterative change in 
          total energy or number of iterations. 
          Levelshifting, if invoked, occurs when the 
          HOMO/LUMO gap drops below (HL_TOL): 1.00D-02
          DIIS, if invoked, will attempt to extrapolate 
          using up to (NFOCK): 10 stored Fock matrices.

                    Damping( 0%)  Levelshifting(0.5)       DIIS
                  --------------- ------------------- ---------------
          dE  on:    start            ASAP                start   
          dE off:    2 iters         30 iters            30 iters 


      Screening Tolerance Information
      -------------------------------
          Density screening/tol_rho: 1.00D-10
          AO Gaussian exp screening on grid/accAOfunc:  14
          CD Gaussian exp screening on grid/accCDfunc:  20
          XC Gaussian exp screening on grid/accXCfunc:  20
          Schwarz screening/accCoul: 1.00D-08


 Loading old vectors from job with title :

N2 dft optimize


      Symmetry analysis of molecular orbitals - initial
      -------------------------------------------------

  Numbering of irreducible representations: 

     1 a1g         2 a1u         3 a2g         4 a2u         5 b1g     
     6 b1u         7 b2g         8 b2u         9 eg         10 eu      

  Orbital symmetries:

     1 a1g         2 a2u         3 a1g         4 a2u         5 eu      
     6 eu          7 a1g         8 eg          9 eg         10 a2u     
    11 eu         12 eu         13 a1g        14 a1g        15 eg      
    16 eg         17 a2u     

   Time after variat. SCF:      0.4
   Time prior to 1st pass:      0.4

 #quartets = 1.044D+03 #integrals = 3.290D+03 #direct =  0.0% #cached =100.0%


 Integral file          = ./N2.aoints.0
 Record size in doubles =  65536        No. of integs per rec  =  43688
 Max. records in memory =      2        Max. records in file   = 185629
 No. of bits per label  =      8        No. of bits per value  =     64


 Grid_pts file          = ./N2.gridpts.0
 Record size in doubles =  12289        No. of grid_pts per rec  =   3070
 Max. records in memory =      9        Max. recs in file   =    989946


           Memory utilization after 1st SCF pass: 
           Heap Space remaining (MW):       32.52            32524944
          Stack Space remaining (MW):       32.77            32767795

   convergence    iter        energy       DeltaE   RMS-Dens  Diis-err    time
 ---------------- ----- ----------------- --------- --------- ---------  ------
 d= 0,ls=0.0,diis     1   -109.4705387893 -1.33D+02  3.10D-03  3.12D-03     0.4
 d= 0,ls=0.0,diis     2   -109.4709847852 -4.46D-04  1.04D-03  4.29D-04     0.4
 d= 0,ls=0.0,diis     3   -109.4710361347 -5.13D-05  2.00D-04  2.80D-05     0.5
 d= 0,ls=0.0,diis     4   -109.4710398368 -3.70D-06  4.59D-06  3.63D-09     0.5
 d= 0,ls=0.0,diis     5   -109.4710398373 -4.76D-10  2.14D-07  5.60D-12     0.5


         Total DFT energy =     -109.471039837264
      One electron energy =     -193.323740379380
           Coulomb energy =       74.351698418600
    Exchange-Corr. energy =      -13.669100257630
 Nuclear repulsion energy =       23.170102381146

 Numeric. integr. density =       14.000000517133

     Total iterative time =      0.1s



                  Occupations of the irreducible representations
                  ----------------------------------------------

                     irrep           alpha         beta
                     --------     --------     --------
                     a1g               3.0          3.0
                     a1u               0.0          0.0
                     a2g               0.0          0.0
                     a2u               2.0          2.0
                     b1g               0.0          0.0
                     b1u               0.0          0.0
                     b2g               0.0          0.0
                     b2u               0.0          0.0
                     eg                0.0          0.0
                     eu                2.0          2.0


                       DFT Final Molecular Orbital Analysis
                       ------------------------------------

 Vector    1  Occ=2.000000D+00  E=-1.446036D+01  Symmetry=a1g
              MO Center=  5.2D-18, -1.9D-17, -7.7D-13, r^2= 3.3D-01
   Bfn.  Coefficient  Atom+Function         Bfn.  Coefficient  Atom+Function  
  ----- ------------  ---------------      ----- ------------  ---------------
     1      0.703530  1 N  s                 10      0.703530  2 N  s          

 Vector    2  Occ=2.000000D+00  E=-1.445908D+01  Symmetry=a2u
              MO Center=  2.0D-30,  2.2D-30,  7.7D-13, r^2= 3.3D-01
   Bfn.  Coefficient  Atom+Function         Bfn.  Coefficient  Atom+Function  
  ----- ------------  ---------------      ----- ------------  ---------------
     1      0.703774  1 N  s                 10     -0.703774  2 N  s          

 Vector    3  Occ=2.000000D+00  E=-1.165502D+00  Symmetry=a1g
              MO Center=  3.1D-17,  9.6D-18, -1.4D-16, r^2= 4.3D-01
   Bfn.  Coefficient  Atom+Function         Bfn.  Coefficient  Atom+Function  
  ----- ------------  ---------------      ----- ------------  ---------------
     2      0.353638  1 N  s                 11      0.353638  2 N  s          
     5      0.250123  1 N  pz                14     -0.250123  2 N  pz         
     6      0.175069  1 N  s                 15      0.175069  2 N  s          
     1     -0.155857  1 N  s                 10     -0.155857  2 N  s          

 Vector    4  Occ=2.000000D+00  E=-5.506999D-01  Symmetry=a2u
              MO Center= -6.8D-17,  1.1D-16,  2.9D-15, r^2= 1.3D+00
   Bfn.  Coefficient  Atom+Function         Bfn.  Coefficient  Atom+Function  
  ----- ------------  ---------------      ----- ------------  ---------------
     6      0.597905  1 N  s                 15     -0.597905  2 N  s          
     2      0.344685  1 N  s                 11     -0.344685  2 N  s          
     5     -0.184258  1 N  pz                14     -0.184258  2 N  pz         
     1     -0.151347  1 N  s                 10      0.151347  2 N  s          

 Vector    5  Occ=2.000000D+00  E=-4.714528D-01  Symmetry=eu
              MO Center=  7.0D-19,  9.7D-19, -9.7D-17, r^2= 9.4D-01
   Bfn.  Coefficient  Atom+Function         Bfn.  Coefficient  Atom+Function  
  ----- ------------  ---------------      ----- ------------  ---------------
     4      0.374317  1 N  py                13      0.374317  2 N  py         
     3      0.269311  1 N  px                12      0.269311  2 N  px         
     8      0.194773  1 N  py                17      0.194773  2 N  py         

 Vector    6  Occ=2.000000D+00  E=-4.714528D-01  Symmetry=eu
              MO Center= -1.7D-19,  1.2D-19, -1.5D-16, r^2= 9.4D-01
   Bfn.  Coefficient  Atom+Function         Bfn.  Coefficient  Atom+Function  
  ----- ------------  ---------------      ----- ------------  ---------------
     3      0.374317  1 N  px                12      0.374317  2 N  px         
     4     -0.269311  1 N  py                13     -0.269311  2 N  py         
     7      0.194773  1 N  px                16      0.194773  2 N  px         

 Vector    7  Occ=2.000000D+00  E=-4.225881D-01  Symmetry=a1g
              MO Center= -3.3D-19, -1.5D-18, -2.2D-15, r^2= 1.3D+00
   Bfn.  Coefficient  Atom+Function         Bfn.  Coefficient  Atom+Function  
  ----- ------------  ---------------      ----- ------------  ---------------
     5      0.464988  1 N  pz                14     -0.464988  2 N  pz         
     6     -0.340973  1 N  s                 15     -0.340973  2 N  s          
     9      0.177236  1 N  pz                18     -0.177236  2 N  pz         

 Vector    8  Occ=0.000000D+00  E=-4.170562D-02  Symmetry=eg
              MO Center=  6.0D-21, -2.0D-19,  0.0D+00, r^2= 1.2D+00
   Bfn.  Coefficient  Atom+Function         Bfn.  Coefficient  Atom+Function  
  ----- ------------  ---------------      ----- ------------  ---------------
     8      0.542593  1 N  py                17     -0.542593  2 N  py         
     4      0.515165  1 N  py                13     -0.515165  2 N  py         

 Vector    9  Occ=0.000000D+00  E=-4.170562D-02  Symmetry=eg
              MO Center=  5.4D-18,  1.6D-19,  2.2D-16, r^2= 1.2D+00
   Bfn.  Coefficient  Atom+Function         Bfn.  Coefficient  Atom+Function  
  ----- ------------  ---------------      ----- ------------  ---------------
     7      0.542593  1 N  px                16     -0.542593  2 N  px         
     3      0.515165  1 N  px                12     -0.515165  2 N  px         

 Vector   10  Occ=0.000000D+00  E= 4.059598D-01  Symmetry=a2u
              MO Center=  1.7D-17,  8.9D-17,  8.9D-16, r^2= 2.9D+00
   Bfn.  Coefficient  Atom+Function         Bfn.  Coefficient  Atom+Function  
  ----- ------------  ---------------      ----- ------------  ---------------
     6      3.615282  1 N  s                 15     -3.615282  2 N  s          
     9      2.436118  1 N  pz                18      2.436118  2 N  pz         
     2      0.247436  1 N  s                 11     -0.247436  2 N  s          
     5      0.184555  1 N  pz                14      0.184555  2 N  pz         

 Vector   11  Occ=0.000000D+00  E= 6.072477D-01  Symmetry=a1g
              MO Center=  5.7D-15, -1.9D-14, -3.2D-15, r^2= 2.4D+00
   Bfn.  Coefficient  Atom+Function         Bfn.  Coefficient  Atom+Function  
  ----- ------------  ---------------      ----- ------------  ---------------
     9      0.994201  1 N  pz                18     -0.994201  2 N  pz         
     5     -0.491321  1 N  pz                14      0.491321  2 N  pz         
     2     -0.304522  1 N  s                 11     -0.304522  2 N  s          

 Vector   12  Occ=0.000000D+00  E= 6.129712D-01  Symmetry=eu
              MO Center= -3.0D-17, -9.0D-18, -2.2D-16, r^2= 1.8D+00
   Bfn.  Coefficient  Atom+Function         Bfn.  Coefficient  Atom+Function  
  ----- ------------  ---------------      ----- ------------  ---------------
     3      0.638742  1 N  px                12      0.638742  2 N  px         
     7     -0.602650  1 N  px                16     -0.602650  2 N  px         
     4      0.190744  1 N  py                13      0.190744  2 N  py         
     8     -0.179966  1 N  py                17     -0.179966  2 N  py         

 Vector   13  Occ=0.000000D+00  E= 6.129712D-01  Symmetry=eu
              MO Center= -4.6D-15,  1.5D-14,  4.5D-15, r^2= 1.8D+00
   Bfn.  Coefficient  Atom+Function         Bfn.  Coefficient  Atom+Function  
  ----- ------------  ---------------      ----- ------------  ---------------
     4      0.638742  1 N  py                13      0.638742  2 N  py         
     8     -0.602650  1 N  py                17     -0.602650  2 N  py         
     3     -0.190744  1 N  px                12     -0.190744  2 N  px         
     7      0.179966  1 N  px                16      0.179966  2 N  px         

 Vector   14  Occ=0.000000D+00  E= 7.299322D-01  Symmetry=a1g
              MO Center= -1.1D-15,  3.8D-15,  4.1D-15, r^2= 1.8D+00
   Bfn.  Coefficient  Atom+Function         Bfn.  Coefficient  Atom+Function  
  ----- ------------  ---------------      ----- ------------  ---------------
     2      1.064741  1 N  s                 11      1.064741  2 N  s          
     6     -0.907579  1 N  s                 15     -0.907579  2 N  s          
     5     -0.217749  1 N  pz                14      0.217749  2 N  pz         

 Vector   15  Occ=0.000000D+00  E= 7.444441D-01  Symmetry=eg
              MO Center=  1.4D-15, -6.2D-16,  1.0D-15, r^2= 2.2D+00
   Bfn.  Coefficient  Atom+Function         Bfn.  Coefficient  Atom+Function  
  ----- ------------  ---------------      ----- ------------  ---------------
     7      1.091598  1 N  px                16     -1.091598  2 N  px         
     3     -0.627808  1 N  px                12      0.627808  2 N  px         
     8     -0.482815  1 N  py                17      0.482815  2 N  py         
     4      0.277680  1 N  py                13     -0.277680  2 N  py         

 Vector   16  Occ=0.000000D+00  E= 7.444441D-01  Symmetry=eg
              MO Center= -2.4D-16, -5.5D-16, -5.8D-15, r^2= 2.2D+00
   Bfn.  Coefficient  Atom+Function         Bfn.  Coefficient  Atom+Function  
  ----- ------------  ---------------      ----- ------------  ---------------
     8      1.091598  1 N  py                17     -1.091598  2 N  py         
     4     -0.627808  1 N  py                13      0.627808  2 N  py         
     7      0.482815  1 N  px                16     -0.482815  2 N  px         
     3     -0.277680  1 N  px                12      0.277680  2 N  px         

 Vector   17  Occ=0.000000D+00  E= 8.234168D-01  Symmetry=a2u
              MO Center= -1.1D-15,  9.6D-16, -2.8D-17, r^2= 1.3D+00
   Bfn.  Coefficient  Atom+Function         Bfn.  Coefficient  Atom+Function  
  ----- ------------  ---------------      ----- ------------  ---------------
     5      0.916201  1 N  pz                14      0.916201  2 N  pz         
     6      0.738751  1 N  s                 15     -0.738751  2 N  s          
     9     -0.218373  1 N  pz                18     -0.218373  2 N  pz         
     2     -0.184871  1 N  s                 11      0.184871  2 N  s          


 center of mass
 --------------
 x =   0.00000000 y =   0.00000000 z =   0.00000000

 moments of inertia (a.u.)
 ------------------
          31.313349013896           0.000000000000           0.000000000000
           0.000000000000          31.313349013896           0.000000000000
           0.000000000000           0.000000000000           0.000000000000

     Multipole analysis of the density
     ---------------------------------

     L   x y z        total         alpha         beta         nuclear
     -   - - -        -----         -----         ----         -------
     0   0 0 0     -0.000000     -7.000000     -7.000000     14.000000

     1   1 0 0      0.000000      0.000000      0.000000      0.000000
     1   0 1 0     -0.000000     -0.000000     -0.000000      0.000000
     1   0 0 1     -0.000000     -0.000000     -0.000000      0.000000

     2   2 0 0     -7.492046     -3.746023     -3.746023      0.000000
     2   1 1 0      0.000000      0.000000      0.000000      0.000000
     2   1 0 1     -0.000000     -0.000000     -0.000000      0.000000
     2   0 2 0     -7.492046     -3.746023     -3.746023      0.000000
     2   0 1 1     -0.000000     -0.000000     -0.000000      0.000000
     2   0 0 2     -9.170445    -12.411844    -12.411844     15.653242


 Parallel integral file used       1 records with       0 large values



                            NWChem DFT Gradient Module
                            --------------------------


                                  N2 dft optimize



  charge          =   0.00
  wavefunction    = closed shell

  Using symmetry


                         DFT ENERGY GRADIENTS

    atom               coordinates                        gradient
                 x          y          z           x          y          z
   1 N       0.000000   0.000000  -1.057397    0.000000   0.000000  -0.002030
   2 N       0.000000   0.000000   1.057397    0.000000   0.000000   0.002030

                 ----------------------------------------
                 |  Time  |  1-e(secs)   |  2-e(secs)   |
                 ----------------------------------------
                 |  CPU   |       0.00   |       0.03   |
                 ----------------------------------------
                 |  WALL  |       0.00   |       0.03   |
                 ----------------------------------------

  Step       Energy      Delta E   Gmax     Grms     Xrms     Xmax   Walltime
  ---- ---------------- -------- -------- -------- -------- -------- --------
@    1    -109.47103984 -9.2D-04  0.00203  0.00203  0.01042  0.01805      0.7
                                                                    



                                Z-matrix (autoz)
                                -------- 

 Units are Angstrom for bonds and degrees for angles

      Type          Name      I     J     K     L     M      Value     Gradient
      ----------- --------  ----- ----- ----- ----- ----- ---------- ----------
    1 Stretch                  1     2                       1.11910    0.00203


                                 NWChem DFT Module
                                 -----------------


                                  N2 dft optimize


  Caching 1-el integrals 

            General Information
            -------------------
          SCF calculation type: DFT
          Wavefunction type:  closed shell.
          No. of atoms     :     2
          No. of electrons :    14
           Alpha electrons :     7
            Beta electrons :     7
          Charge           :     0
          Spin multiplicity:     1
          Use of symmetry is: on ; symmetry adaption is: on 
          Maximum number of iterations:  30
          AO basis - number of functions:    18
                     number of shells:    10
          Convergence on energy requested: 1.00D-06
          Convergence on density requested: 1.00D-05
          Convergence on gradient requested: 5.00D-04

              XC Information
              --------------
                         B3LYP Method XC Potential
                     Hartree-Fock (Exact) Exchange  0.200          
                        Slater Exchange Functional  0.800 local    
                    Becke 1988 Exchange Functional  0.720 non-local
              Lee-Yang-Parr Correlation Functional  0.810          
                  VWN I RPA Correlation Functional  0.190 local    

             Grid Information
             ----------------
          Grid used for XC integration:  medium    
          Radial quadrature: Mura-Knowles        
          Angular quadrature: Lebedev. 
          Tag              B.-S. Rad. Rad. Pts. Rad. Cut. Ang. Pts.
          ---              ---------- --------- --------- ---------
          N                   0.65       49           5.0       434
          Grid pruning is: on 
          Number of quadrature shells:    49
          Spatial weights used:  Erf1

          Convergence Information
          -----------------------
          Convergence aids based upon iterative change in 
          total energy or number of iterations. 
          Levelshifting, if invoked, occurs when the 
          HOMO/LUMO gap drops below (HL_TOL): 1.00D-02
          DIIS, if invoked, will attempt to extrapolate 
          using up to (NFOCK): 10 stored Fock matrices.

                    Damping( 0%)  Levelshifting(0.5)       DIIS
                  --------------- ------------------- ---------------
          dE  on:    start            ASAP                start   
          dE off:    2 iters         30 iters            30 iters 


      Screening Tolerance Information
      -------------------------------
          Density screening/tol_rho: 1.00D-10
          AO Gaussian exp screening on grid/accAOfunc:  14
          CD Gaussian exp screening on grid/accCDfunc:  20
          XC Gaussian exp screening on grid/accXCfunc:  20
          Schwarz screening/accCoul: 1.00D-08


 Loading old vectors from job with title :

N2 dft optimize


      Symmetry analysis of molecular orbitals - initial
      -------------------------------------------------

  Numbering of irreducible representations: 

     1 a1g         2 a1u         3 a2g         4 a2u         5 b1g     
     6 b1u         7 b2g         8 b2u         9 eg         10 eu      

  Orbital symmetries:

     1 a1g         2 a2u         3 a1g         4 a2u         5 eu      
     6 eu          7 a1g         8 eg          9 eg         10 a2u     
    11 a1g        12 eu         13 eu         14 a1g        15 eg      
    16 eg         17 a2u     

   Time after variat. SCF:      0.5
   Time prior to 1st pass:      0.5

 #quartets = 1.044D+03 #integrals = 3.290D+03 #direct =  0.0% #cached =100.0%


 Integral file          = ./N2.aoints.0
 Record size in doubles =  65536        No. of integs per rec  =  43688
 Max. records in memory =      2        Max. records in file   = 185629
 No. of bits per label  =      8        No. of bits per value  =     64


 Grid_pts file          = ./N2.gridpts.0
 Record size in doubles =  12289        No. of grid_pts per rec  =   3070
 Max. records in memory =      9        Max. recs in file   =    989946


           Memory utilization after 1st SCF pass: 
           Heap Space remaining (MW):       32.52            32524944
          Stack Space remaining (MW):       32.77            32767795

   convergence    iter        energy       DeltaE   RMS-Dens  Diis-err    time
 ---------------- ----- ----------------- --------- --------- ---------  ------
 d= 0,ls=0.0,diis     1   -109.4710408686 -1.33D+02  8.43D-05  2.32D-06     0.6
 d= 0,ls=0.0,diis     2   -109.4710411987 -3.30D-07  2.87D-05  3.30D-07     0.6
 d= 0,ls=0.0,diis     3   -109.4710412382 -3.95D-08  5.37D-06  2.03D-08     0.6


         Total DFT energy =     -109.471041238177
      One electron energy =     -193.350567906276
           Coulomb energy =       74.365065357335
    Exchange-Corr. energy =      -13.669879763014
 Nuclear repulsion energy =       23.184341073778

 Numeric. integr. density =       14.000000524936

     Total iterative time =      0.1s



                  Occupations of the irreducible representations
                  ----------------------------------------------

                     irrep           alpha         beta
                     --------     --------     --------
                     a1g               3.0          3.0
                     a1u               0.0          0.0
                     a2g               0.0          0.0
                     a2u               2.0          2.0
                     b1g               0.0          0.0
                     b1u               0.0          0.0
                     b2g               0.0          0.0
                     b2u               0.0          0.0
                     eg                0.0          0.0
                     eu                2.0          2.0


                       DFT Final Molecular Orbital Analysis
                       ------------------------------------

 Vector    1  Occ=2.000000D+00  E=-1.446023D+01  Symmetry=a1g
              MO Center=  0.0D+00,  0.0D+00,  1.7D-16, r^2= 3.3D-01
   Bfn.  Coefficient  Atom+Function         Bfn.  Coefficient  Atom+Function  
  ----- ------------  ---------------      ----- ------------  ---------------
     1      0.703528  1 N  s                 10      0.703528  2 N  s          

 Vector    2  Occ=2.000000D+00  E=-1.445893D+01  Symmetry=a2u
              MO Center=  4.3D-18,  1.6D-18, -2.8D-16, r^2= 3.3D-01
   Bfn.  Coefficient  Atom+Function         Bfn.  Coefficient  Atom+Function  
  ----- ------------  ---------------      ----- ------------  ---------------
     1      0.703775  1 N  s                 10     -0.703775  2 N  s          

 Vector    3  Occ=2.000000D+00  E=-1.165943D+00  Symmetry=a1g
              MO Center=  8.4D-43, -6.9D-43,  9.7D-17, r^2= 4.3D-01
   Bfn.  Coefficient  Atom+Function         Bfn.  Coefficient  Atom+Function  
  ----- ------------  ---------------      ----- ------------  ---------------
     2      0.353649  1 N  s                 11      0.353649  2 N  s          
     5      0.250252  1 N  pz                14     -0.250252  2 N  pz         
     6      0.174898  1 N  s                 15      0.174898  2 N  s          
     1     -0.155900  1 N  s                 10     -0.155900  2 N  s          

 Vector    4  Occ=2.000000D+00  E=-5.505005D-01  Symmetry=a2u
              MO Center=  4.1D-17, -4.1D-17,  1.3D-15, r^2= 1.3D+00
   Bfn.  Coefficient  Atom+Function         Bfn.  Coefficient  Atom+Function  
  ----- ------------  ---------------      ----- ------------  ---------------
     6      0.598112  1 N  s                 15     -0.598112  2 N  s          
     2      0.344601  1 N  s                 11     -0.344601  2 N  s          
     5     -0.184416  1 N  pz                14     -0.184416  2 N  pz         
     1     -0.151315  1 N  s                 10      0.151315  2 N  s          

 Vector    5  Occ=2.000000D+00  E=-4.716684D-01  Symmetry=eu
              MO Center=  7.9D-46, -5.6D-44, -2.8D-17, r^2= 9.4D-01
   Bfn.  Coefficient  Atom+Function         Bfn.  Coefficient  Atom+Function  
  ----- ------------  ---------------      ----- ------------  ---------------
     4      0.461160  1 N  py                13      0.461160  2 N  py         
     8      0.239793  1 N  py                17      0.239793  2 N  py         

 Vector    6  Occ=2.000000D+00  E=-4.716684D-01  Symmetry=eu
              MO Center= -5.3D-19, -5.5D-21,  2.2D-16, r^2= 9.4D-01
   Bfn.  Coefficient  Atom+Function         Bfn.  Coefficient  Atom+Function  
  ----- ------------  ---------------      ----- ------------  ---------------
     3      0.461160  1 N  px                12      0.461160  2 N  px         
     7      0.239793  1 N  px                16      0.239793  2 N  px         

 Vector    7  Occ=2.000000D+00  E=-4.226110D-01  Symmetry=a1g
              MO Center=  3.8D-18, -3.7D-18, -1.7D-15, r^2= 1.3D+00
   Bfn.  Coefficient  Atom+Function         Bfn.  Coefficient  Atom+Function  
  ----- ------------  ---------------      ----- ------------  ---------------
     5      0.464967  1 N  pz                14     -0.464967  2 N  pz         
     6     -0.341110  1 N  s                 15     -0.341110  2 N  s          
     9      0.177112  1 N  pz                18     -0.177112  2 N  pz         

 Vector    8  Occ=0.000000D+00  E=-4.138761D-02  Symmetry=eg
              MO Center=  1.6D-18,  5.7D-19, -2.2D-16, r^2= 1.2D+00
   Bfn.  Coefficient  Atom+Function         Bfn.  Coefficient  Atom+Function  
  ----- ------------  ---------------      ----- ------------  ---------------
     7      0.510497  1 N  px                16     -0.510497  2 N  px         
     3      0.484244  1 N  px                12     -0.484244  2 N  px         
     8      0.185972  1 N  py                17     -0.185972  2 N  py         
     4      0.176408  1 N  py                13     -0.176408  2 N  py         

 Vector    9  Occ=0.000000D+00  E=-4.138761D-02  Symmetry=eg
              MO Center= -4.0D-19,  1.1D-18,  1.1D-16, r^2= 1.2D+00
   Bfn.  Coefficient  Atom+Function         Bfn.  Coefficient  Atom+Function  
  ----- ------------  ---------------      ----- ------------  ---------------
     8      0.510497  1 N  py                17     -0.510497  2 N  py         
     4      0.484244  1 N  py                13     -0.484244  2 N  py         
     7     -0.185972  1 N  px                16      0.185972  2 N  px         
     3     -0.176408  1 N  px                12      0.176408  2 N  px         

 Vector   10  Occ=0.000000D+00  E= 4.063703D-01  Symmetry=a2u
              MO Center=  5.9D-20,  1.5D-19, -8.9D-16, r^2= 2.9D+00
   Bfn.  Coefficient  Atom+Function         Bfn.  Coefficient  Atom+Function  
  ----- ------------  ---------------      ----- ------------  ---------------
     6      3.624431  1 N  s                 15     -3.624431  2 N  s          
     9      2.440206  1 N  pz                18      2.440206  2 N  pz         
     2      0.247327  1 N  s                 11     -0.247327  2 N  s          
     5      0.183293  1 N  pz                14      0.183293  2 N  pz         

 Vector   11  Occ=0.000000D+00  E= 6.069766D-01  Symmetry=a1g
              MO Center= -9.0D-17, -1.1D-16,  2.2D-15, r^2= 2.4D+00
   Bfn.  Coefficient  Atom+Function         Bfn.  Coefficient  Atom+Function  
  ----- ------------  ---------------      ----- ------------  ---------------
     9      0.994542  1 N  pz                18     -0.994542  2 N  pz         
     5     -0.490779  1 N  pz                14      0.490779  2 N  pz         
     2     -0.305155  1 N  s                 11     -0.305155  2 N  s          

 Vector   12  Occ=0.000000D+00  E= 6.128693D-01  Symmetry=eu
              MO Center=  1.2D-16,  1.8D-16,  3.2D-16, r^2= 1.8D+00
   Bfn.  Coefficient  Atom+Function         Bfn.  Coefficient  Atom+Function  
  ----- ------------  ---------------      ----- ------------  ---------------
     4      0.559829  1 N  py                13      0.559829  2 N  py         
     8     -0.528294  1 N  py                17     -0.528294  2 N  py         
     3      0.361649  1 N  px                12      0.361649  2 N  px         
     7     -0.341278  1 N  px                16     -0.341278  2 N  px         

 Vector   13  Occ=0.000000D+00  E= 6.128693D-01  Symmetry=eu
              MO Center=  3.0D-17, -1.9D-17,  3.7D-16, r^2= 1.8D+00
   Bfn.  Coefficient  Atom+Function         Bfn.  Coefficient  Atom+Function  
  ----- ------------  ---------------      ----- ------------  ---------------
     3      0.559829  1 N  px                12      0.559829  2 N  px         
     7     -0.528294  1 N  px                16     -0.528294  2 N  px         
     4     -0.361649  1 N  py                13     -0.361649  2 N  py         
     8      0.341278  1 N  py                17      0.341278  2 N  py         

 Vector   14  Occ=0.000000D+00  E= 7.299545D-01  Symmetry=a1g
              MO Center= -6.0D-17, -4.3D-17,  5.6D-17, r^2= 1.8D+00
   Bfn.  Coefficient  Atom+Function         Bfn.  Coefficient  Atom+Function  
  ----- ------------  ---------------      ----- ------------  ---------------
     2      1.064490  1 N  s                 11      1.064490  2 N  s          
     6     -0.907493  1 N  s                 15     -0.907493  2 N  s          
     5     -0.218323  1 N  pz                14      0.218323  2 N  pz         

 Vector   15  Occ=0.000000D+00  E= 7.445717D-01  Symmetry=eg
              MO Center=  1.6D-17, -1.2D-16, -2.2D-16, r^2= 2.2D+00
   Bfn.  Coefficient  Atom+Function         Bfn.  Coefficient  Atom+Function  
  ----- ------------  ---------------      ----- ------------  ---------------
     8      1.183934  1 N  py                17     -1.183934  2 N  py         
     4     -0.680814  1 N  py                13      0.680814  2 N  py         
     7     -0.154736  1 N  px                16      0.154736  2 N  px         

 Vector   16  Occ=0.000000D+00  E= 7.445717D-01  Symmetry=eg
              MO Center= -1.2D-15, -1.6D-16, -5.6D-16, r^2= 2.2D+00
   Bfn.  Coefficient  Atom+Function         Bfn.  Coefficient  Atom+Function  
  ----- ------------  ---------------      ----- ------------  ---------------
     7      1.183934  1 N  px                16     -1.183934  2 N  px         
     3     -0.680814  1 N  px                12      0.680814  2 N  px         
     8      0.154736  1 N  py                17     -0.154736  2 N  py         

 Vector   17  Occ=0.000000D+00  E= 8.243758D-01  Symmetry=a2u
              MO Center=  1.2D-15,  3.3D-16, -4.7D-16, r^2= 1.3D+00
   Bfn.  Coefficient  Atom+Function         Bfn.  Coefficient  Atom+Function  
  ----- ------------  ---------------      ----- ------------  ---------------
     5      0.916498  1 N  pz                14      0.916498  2 N  pz         
     6      0.752869  1 N  s                 15     -0.752869  2 N  s          
     9     -0.210748  1 N  pz                18     -0.210748  2 N  pz         
     2     -0.185773  1 N  s                 11      0.185773  2 N  s          


 center of mass
 --------------
 x =   0.00000000 y =   0.00000000 z =   0.00000000

 moments of inertia (a.u.)
 ------------------
          31.274898558272           0.000000000000           0.000000000000
           0.000000000000          31.274898558272           0.000000000000
           0.000000000000           0.000000000000           0.000000000000

     Multipole analysis of the density
     ---------------------------------

     L   x y z        total         alpha         beta         nuclear
[...]


      Screening Tolerance Information
      -------------------------------
          Density screening/tol_rho: 1.00D-11
          AO Gaussian exp screening on grid/accAOfunc:  16
          CD Gaussian exp screening on grid/accCDfunc:  20
          XC Gaussian exp screening on grid/accXCfunc:  20
          Schwarz screening/accCoul: 1.00D-08


 !! nbf/nmo/basis-name mismatch 
           nbf=  46 nbf_file=  38
           nmo=  46nmo_file=  38
           basis="ao basis" basis_file="ao basis"

  Either an incorrect movecs file was specified, or linear dependence has changed,
  or the basis name was changed. 

 Loading old vectors from job with title :

N2 dft freq


  Load of old vectors failed.   Forcing atomic density guess


      Superposition of Atomic Density Guess
      -------------------------------------

 Sum of atomic energies:        -108.61593604

      Non-variational initial energy
      ------------------------------

 Total energy =    -109.048128
 1-e energy   =    -193.050382
 2-e energy   =      60.817913
 HOMO         =      -0.427461
 LUMO         =       0.005193


      Symmetry analysis of molecular orbitals - initial
      -------------------------------------------------


 !! scf_movecs_sym_adapt:    4 vectors were symmetry contaminated

  Symmetry fudging

 !! scf_movecs_sym_adapt:    4 vectors were symmetry contaminated

  Numbering of irreducible representations: 

     1 a1g         2 a1u         3 a2g         4 a2u         5 b1g     
     6 b1u         7 b2g         8 b2u         9 eg         10 eu      

  Orbital symmetries:

     1 a1g         2 a2u         3 a1g         4 a2u         5 eu      
     6 eu          7 a1g         8 eg          9 eg         10 a2u     
    11 a1g        12 eu         13 eu         14 a1g        15 eg      
    16 eg         17 a2u     

   Time after variat. SCF:     10.7
   Time prior to 1st pass:     10.7

 Integral file          = ./N2.aoints.0
 Record size in doubles =  65536        No. of integs per rec  =  43688
 Max. records in memory =      3        Max. records in file   = 185625
 No. of bits per label  =      8        No. of bits per value  =     64


 #quartets = 1.511D+04 #integrals = 1.160D+05 #direct =  0.0% #cached =100.0%


 Grid_pts file          = ./N2.gridpts.0
 Record size in doubles =  12289        No. of grid_pts per rec  =   3070
 Max. records in memory =     16        Max. recs in file   =    989926


           Memory utilization after 1st SCF pass: 
           Heap Space remaining (MW):       32.37            32372708
          Stack Space remaining (MW):       32.77            32767653

   convergence    iter        energy       DeltaE   RMS-Dens  Diis-err    time
 ---------------- ----- ----------------- --------- --------- ---------  ------
 d= 0,ls=0.0,diis     1   -109.5360125851 -1.33D+02  5.94D-03  4.38D-01    10.9
 d= 0,ls=0.0,diis     2   -109.5528252212 -1.68D-02  5.89D-03  6.60D-02    11.0
 d= 0,ls=0.0,diis     3   -109.5586611978 -5.84D-03  1.31D-03  7.31D-03    11.1
 d= 0,ls=0.0,diis     4   -109.5594118373 -7.51D-04  4.98D-05  2.44D-06    11.3
 d= 0,ls=0.0,diis     5   -109.5594121294 -2.92D-07  2.69D-06  3.52D-08    11.4
 d= 0,ls=0.0,diis     6   -109.5594121323 -2.87D-09  4.67D-07  3.36D-10    11.5


         Total DFT energy =     -109.559412132295
      One electron energy =     -193.649255289979
           Coulomb energy =       74.573705752727
    Exchange-Corr. energy =      -13.668203668822
 Nuclear repulsion energy =       23.184341073778

 Numeric. integr. density =       14.000000006583

     Total iterative time =      0.8s



                  Occupations of the irreducible representations
                  ----------------------------------------------

                     irrep           alpha         beta
                     --------     --------     --------
                     a1g               3.0          3.0
                     a1u               0.0          0.0
                     a2g               0.0          0.0
                     a2u               2.0          2.0
                     b1g               0.0          0.0
                     b1u               0.0          0.0
                     b2g               0.0          0.0
                     b2u               0.0          0.0
                     eg                0.0          0.0
                     eu                2.0          2.0


                       DFT Final Molecular Orbital Analysis
                       ------------------------------------

 Vector    1  Occ=2.000000D+00  E=-1.443462D+01  Symmetry=a1g
              MO Center=  0.0D+00,  0.0D+00,  6.2D-17, r^2= 3.3D-01
   Bfn.  Coefficient  Atom+Function         Bfn.  Coefficient  Atom+Function  
  ----- ------------  ---------------      ----- ------------  ---------------
     1      0.394352  1 N  s                 24      0.394352  2 N  s          
     2      0.326976  1 N  s                 25      0.326976  2 N  s          

 Vector    2  Occ=2.000000D+00  E=-1.443310D+01  Symmetry=a2u
              MO Center=  1.3D-23, -9.2D-23, -1.2D-16, r^2= 3.3D-01
   Bfn.  Coefficient  Atom+Function         Bfn.  Coefficient  Atom+Function  
  ----- ------------  ---------------      ----- ------------  ---------------
     1      0.394464  1 N  s                 24     -0.394464  2 N  s          
     2      0.327067  1 N  s                 25     -0.327067  2 N  s          

 Vector    3  Occ=2.000000D+00  E=-1.127314D+00  Symmetry=a1g
              MO Center=  7.9D-39, -6.4D-39, -4.2D-17, r^2= 4.4D-01
   Bfn.  Coefficient  Atom+Function         Bfn.  Coefficient  Atom+Function  
  ----- ------------  ---------------      ----- ------------  ---------------
     6      0.388877  1 N  s                 29      0.388877  2 N  s          
    10      0.173723  1 N  s                 33      0.173723  2 N  s          

 Vector    4  Occ=2.000000D+00  E=-5.669000D-01  Symmetry=a2u
              MO Center=  6.4D-40, -4.6D-39, -2.2D-16, r^2= 1.3D+00
   Bfn.  Coefficient  Atom+Function         Bfn.  Coefficient  Atom+Function  
  ----- ------------  ---------------      ----- ------------  ---------------
    10      0.501403  1 N  s                 33     -0.501403  2 N  s          
     6      0.403166  1 N  s                 29     -0.403166  2 N  s          
    14     -0.177624  1 N  s                 37      0.177624  2 N  s          

 Vector    5  Occ=2.000000D+00  E=-4.697654D-01  Symmetry=eu
              MO Center=  1.1D-17, -4.2D-17,  2.8D-16, r^2= 9.2D-01
   Bfn.  Coefficient  Atom+Function         Bfn.  Coefficient  Atom+Function  
  ----- ------------  ---------------      ----- ------------  ---------------
     8      0.308685  1 N  py                31      0.308685  2 N  py         
    12      0.213307  1 N  py                35      0.213307  2 N  py         
     4      0.205716  1 N  py                27      0.205716  2 N  py         

 Vector    6  Occ=2.000000D+00  E=-4.697654D-01  Symmetry=eu
              MO Center= -3.0D-17,  1.2D-17, -2.8D-16, r^2= 9.2D-01
   Bfn.  Coefficient  Atom+Function         Bfn.  Coefficient  Atom+Function  
  ----- ------------  ---------------      ----- ------------  ---------------
     7      0.308685  1 N  px                30      0.308685  2 N  px         
    11      0.213307  1 N  px                34      0.213307  2 N  px         
     3      0.205716  1 N  px                26      0.205716  2 N  px         

 Vector    7  Occ=2.000000D+00  E=-4.399740D-01  Symmetry=a1g
              MO Center=  1.2D-17, -1.9D-17, -5.3D-16, r^2= 1.4D+00
   Bfn.  Coefficient  Atom+Function         Bfn.  Coefficient  Atom+Function  
  ----- ------------  ---------------      ----- ------------  ---------------
     9      0.299449  1 N  pz                32     -0.299449  2 N  pz         
    10     -0.259502  1 N  s                 33     -0.259502  2 N  s          
     5      0.217261  1 N  pz                28     -0.217261  2 N  pz         
    13      0.178075  1 N  pz                36     -0.178075  2 N  pz         

 Vector    8  Occ=0.000000D+00  E=-4.797295D-02  Symmetry=eg
              MO Center=  2.4D-17, -5.5D-17,  1.4D-16, r^2= 1.7D+00
   Bfn.  Coefficient  Atom+Function         Bfn.  Coefficient  Atom+Function  
  ----- ------------  ---------------      ----- ------------  ---------------
    11      0.351509  1 N  px                34     -0.351509  2 N  px         
    12     -0.281855  1 N  py                15      0.281997  1 N  px         
    35      0.281855  2 N  py                38     -0.281997  2 N  px         
     7      0.262860  1 N  px                30     -0.262860  2 N  px         
    16     -0.226117  1 N  py                39      0.226117  2 N  py         

 Vector    9  Occ=0.000000D+00  E=-4.797295D-02  Symmetry=eg
              MO Center= -5.0D-18, -8.5D-18, -4.4D-16, r^2= 1.7D+00
   Bfn.  Coefficient  Atom+Function         Bfn.  Coefficient  Atom+Function  
  ----- ------------  ---------------      ----- ------------  ---------------
    12      0.351509  1 N  py                35     -0.351509  2 N  py         
    11      0.281855  1 N  px                16      0.281997  1 N  py         
    34     -0.281855  2 N  px                39     -0.281997  2 N  py         
     8      0.262860  1 N  py                31     -0.262860  2 N  py         
    15      0.226117  1 N  px                38     -0.226117  2 N  px         

 Vector   10  Occ=0.000000D+00  E= 6.169026D-02  Symmetry=a1g
              MO Center=  3.0D-17,  2.5D-17, -1.7D-16, r^2= 6.3D+00
   Bfn.  Coefficient  Atom+Function         Bfn.  Coefficient  Atom+Function  
  ----- ------------  ---------------      ----- ------------  ---------------
    14      0.913633  1 N  s                 37      0.913633  2 N  s          
    10     -0.661835  1 N  s                 33     -0.661835  2 N  s          
    17     -0.317042  1 N  pz                40      0.317042  2 N  pz         
    13      0.210471  1 N  pz                36     -0.210471  2 N  pz         

 Vector   11  Occ=0.000000D+00  E= 7.961296D-02  Symmetry=a2u
              MO Center= -3.3D-20,  4.2D-20,  1.1D-14, r^2= 9.2D+00
   Bfn.  Coefficient  Atom+Function         Bfn.  Coefficient  Atom+Function  
  ----- ------------  ---------------      ----- ------------  ---------------
    14     10.810133  1 N  s                 37    -10.810133  2 N  s          
    17      3.696332  1 N  pz                40      3.696332  2 N  pz         
    13     -0.237307  1 N  pz                36     -0.237307  2 N  pz         

 Vector   12  Occ=0.000000D+00  E= 9.114505D-02  Symmetry=eu
              MO Center=  1.9D-17,  2.9D-17, -1.7D-15, r^2= 6.8D+00
   Bfn.  Coefficient  Atom+Function         Bfn.  Coefficient  Atom+Function  
  ----- ------------  ---------------      ----- ------------  ---------------
    16      0.550457  1 N  py                39      0.550457  2 N  py         
    15      0.321752  1 N  px                38      0.321752  2 N  px         
    12     -0.206013  1 N  py                35     -0.206013  2 N  py         

 Vector   13  Occ=0.000000D+00  E= 9.114505D-02  Symmetry=eu
              MO Center=  1.9D-18, -4.8D-18, -9.6D-15, r^2= 6.8D+00
   Bfn.  Coefficient  Atom+Function         Bfn.  Coefficient  Atom+Function  
  ----- ------------  ---------------      ----- ------------  ---------------
    15      0.550457  1 N  px                38      0.550457  2 N  px         
    16     -0.321752  1 N  py                39     -0.321752  2 N  py         
    11     -0.206013  1 N  px                34     -0.206013  2 N  px         

 Vector   14  Occ=0.000000D+00  E= 1.404052D-01  Symmetry=a1g
              MO Center=  8.4D-18, -5.2D-17, -1.6D-14, r^2= 7.7D+00
   Bfn.  Coefficient  Atom+Function         Bfn.  Coefficient  Atom+Function  
  ----- ------------  ---------------      ----- ------------  ---------------
    17      1.539024  1 N  pz                40     -1.539024  2 N  pz         
    10     -0.410443  1 N  s                 33     -0.410443  2 N  s          

 Vector   15  Occ=0.000000D+00  E= 1.707294D-01  Symmetry=eg
              MO Center= -4.2D-30,  9.6D-30,  8.4D-15, r^2= 8.3D+00
   Bfn.  Coefficient  Atom+Function         Bfn.  Coefficient  Atom+Function  
  ----- ------------  ---------------      ----- ------------  ---------------
    16      2.000662  1 N  py                39     -2.000662  2 N  py         
    15     -0.876600  1 N  px                38      0.876600  2 N  px         
    12     -0.419115  1 N  py                35      0.419115  2 N  py         
    11      0.183637  1 N  px                34     -0.183637  2 N  px         

 Vector   16  Occ=0.000000D+00  E= 1.707294D-01  Symmetry=eg
              MO Center=  1.4D-17,  3.0D-17,  3.6D-15, r^2= 8.3D+00
   Bfn.  Coefficient  Atom+Function         Bfn.  Coefficient  Atom+Function  
  ----- ------------  ---------------      ----- ------------  ---------------
    15      2.000662  1 N  px                38     -2.000662  2 N  px         
    16      0.876600  1 N  py                39     -0.876600  2 N  py         
    11     -0.419115  1 N  px                34      0.419115  2 N  px         
    12     -0.183637  1 N  py                35      0.183637  2 N  py         

 Vector   17  Occ=0.000000D+00  E= 2.570244D-01  Symmetry=a2u
              MO Center=  4.5D-17,  1.5D-18,  2.8D-13, r^2= 8.9D+00
   Bfn.  Coefficient  Atom+Function         Bfn.  Coefficient  Atom+Function  
  ----- ------------  ---------------      ----- ------------  ---------------
    14     37.940641  1 N  s                 37    -37.940641  2 N  s          
    17     10.260402  1 N  pz                40     10.260402  2 N  pz         
    10     -0.776079  1 N  s                 33      0.776079  2 N  s          
    13      0.325750  1 N  pz                36      0.325750  2 N  pz         

 Vector   18  Occ=0.000000D+00  E= 4.890502D-01  Symmetry=a2u
              MO Center= -2.0D-19,  7.3D-20,  6.7D-16, r^2= 3.3D+00
   Bfn.  Coefficient  Atom+Function         Bfn.  Coefficient  Atom+Function  
  ----- ------------  ---------------      ----- ------------  ---------------
    14     -4.569559  1 N  s                 37      4.569559  2 N  s          
    10      4.512833  1 N  s                 33     -4.512833  2 N  s          
    13      2.986054  1 N  pz                36      2.986054  2 N  pz         
    17     -1.666952  1 N  pz                40     -1.666952  2 N  pz         
     6      0.207298  1 N  s                 29     -0.207298  2 N  s          

 Vector   19  Occ=0.000000D+00  E= 6.677542D-01  Symmetry=a1g
              MO Center=  1.5D-19,  8.4D-19,  2.2D-14, r^2= 3.9D+00
   Bfn.  Coefficient  Atom+Function         Bfn.  Coefficient  Atom+Function  
  ----- ------------  ---------------      ----- ------------  ---------------
    13      1.299706  1 N  pz                36     -1.299706  2 N  pz         
    17     -1.045655  1 N  pz                40      1.045655  2 N  pz         
     9     -0.440432  1 N  pz                32      0.440432  2 N  pz         
     6     -0.312683  1 N  s                 29     -0.312683  2 N  s          
    10      0.214599  1 N  s                 33      0.214599  2 N  s          


 center of mass
 --------------
 x =   0.00000000 y =   0.00000000 z =   0.00000000

 moments of inertia (a.u.)
 ------------------
          31.274898558272           0.000000000000           0.000000000000
           0.000000000000          31.274898558272           0.000000000000
           0.000000000000           0.000000000000           0.000000000000

     Multipole analysis of the density
     ---------------------------------

     L   x y z        total         alpha         beta         nuclear
     -   - - -        -----         -----         ----         -------
     0   0 0 0     -0.000000     -7.000000     -7.000000     14.000000

     1   1 0 0      0.000000      0.000000      0.000000      0.000000
     1   0 1 0      0.000000      0.000000      0.000000      0.000000
     1   0 0 1     -0.000000     -0.000000     -0.000000      0.000000

     2   2 0 0     -7.725462     -3.862731     -3.862731      0.000000
     2   1 1 0      0.000000      0.000000      0.000000      0.000000
     2   1 0 1      0.000000      0.000000      0.000000      0.000000
     2   0 2 0     -7.725462     -3.862731     -3.862731      0.000000
     2   0 1 1     -0.000000     -0.000000     -0.000000      0.000000
     2   0 0 2     -8.949780    -12.291900    -12.291900     15.634021


 Parallel integral file used       3 records with       0 large values


 Task  times  cpu:        0.9s     wall:        1.0s
 Summary of allocated global arrays
-----------------------------------
  No active global arrays



                         GA Statistics for process    0
                         ------------------------------

       create   destroy   get      put      acc     scatter   gather  read&inc
calls: 1325     1325     8.42e+04 2.28e+04 4.64e+04  182        0     1717     
number of processes/call 1.00e+00 1.00e+00 1.00e+00 1.00e+00 0.00e+00
bytes total:             9.53e+07 1.22e+07 8.12e+07 1.87e+06 0.00e+00 1.37e+04
bytes remote:            0.00e+00 0.00e+00 0.00e+00 0.00e+00 0.00e+00 0.00e+00
Max memory consumed for GA by this process: 723616 bytes
MA_summarize_allocated_blocks: starting scan ...
MA_summarize_allocated_blocks: scan completed: 0 heap blocks, 0 stack blocks
MA usage statistics:

	allocation statistics:
					      heap	     stack
					      ----	     -----
	current number of blocks	         0	         0
	maximum number of blocks	        26	        52
	current total bytes		         0	         0
	maximum total bytes		   8305456	  82741792
	maximum total K-bytes		      8306	     82742
	maximum total M-bytes		         9	        83


                                NWChem Input Module
                                -------------------





                                     CITATION
                                     --------
                Please cite the following reference when publishing
                           results obtained with NWChem:

                 M. Valiev, E.J. Bylaska, N. Govind, K. Kowalski,
              T.P. Straatsma, H.J.J. van Dam, D. Wang, J. Nieplocha,
                        E. Apra, T.L. Windus, W.A. de Jong
                 "NWChem: a comprehensive and scalable open-source
                  solution for large scale molecular simulations"
                      Comput. Phys. Commun. 181, 1477 (2010)
                           doi:10.1016/j.cpc.2010.04.018

                              AUTHORS & CONTRIBUTORS
                              ----------------------
          E. Apra, E. J. Bylaska, W. A. de Jong, N. Govind, K. Kowalski,
       T. P. Straatsma, M. Valiev, H. J. J. van Dam, D. Wang, T. L. Windus,
        J. Hammond, J. Autschbach, K. Bhaskaran-Nair, J. Brabec, K. Lopata,
     F. Aquino, S. Hirata, M. T. Hackler, J. Mullin, P. Nichols, R. Peverati,
    J. Pittner, Y. Zhao, P.-D. Fan, R. J. Harrison, M. Dupuis, D. Silverstein,
    D. M. A. Smith, J. Nieplocha, V. Tipparaju, M. Krishnan, B. E. Van Kuiken,
        A. Vazquez-Mayagoitia, L. Jensen, M. Swart, Q. Wu, T. Van Voorhis,
     A. A. Auer, M. Nooijen, L. D. Crosby, E. Brown, G. Cisneros, G. I. Fann,
     H. Fruchtl, J. Garza, K. Hirao, R. Kendall, J. A. Nichols, K. Tsemekhman,
      K. Wolinski, J. Anchell, D. Bernholdt, P. Borowski, T. Clark, D. Clerc,
      H. Dachsel, M. Deegan, K. Dyall, D. Elwood, E. Glendening, M. Gutowski,
      A. Hess, J. Jaffe, B. Johnson, J. Ju, R. Kobayashi, R. Kutteh, Z. Lin,
   R. Littlefield, X. Long, B. Meng, T. Nakajima, S. Niu, L. Pollack, M. Rosing,
   K. Glaesemann, G. Sandrone, M. Stave, H. Taylor, G. Thomas, J. H. van Lenthe,
                                A. Wong, Z. Zhang.

 Total times  cpu:       11.5s     wall:       12.0s
