 argument  1 = N2.nw
                                         
                                         


              Northwest Computational Chemistry Package (NWChem) 6.3
              ------------------------------------------------------


                    Environmental Molecular Sciences Laboratory
                       Pacific Northwest National Laboratory
                                Richland, WA 99352

                              Copyright (c) 1994-2012
                       Pacific Northwest National Laboratory
                            Battelle Memorial Institute

             NWChem is an open-source computational chemistry package
                        distributed under the terms of the
                      Educational Community License (ECL) 2.0
             A copy of the license is included with this distribution
                              in the LICENSE.TXT file

                                  ACKNOWLEDGMENT
                                  --------------

            This software and its documentation were developed at the
            EMSL at Pacific Northwest National Laboratory, a multiprogram
            national laboratory, operated for the U.S. Department of Energy
            by Battelle under Contract Number DE-AC05-76RL01830. Support
            for this work was provided by the Department of Energy Office
            of Biological and Environmental Research, Office of Basic
            Energy Sciences, and the Office of Advanced Scientific Computing.


           Job information
           ---------------

    hostname        = ChensPro.local
    program         = nwchem
    date            = Fri Apr 17 10:29:46 2015

    compiled        = Sat_Jul_20_13:52:43_2013
    source          = /Users/shyuepingong/Software/nwchem-6.3
    nwchem branch   = 6.3
    nwchem revision = 24277
    ga revision     = 10379
    input           = N2.nw
    prefix          = N2.
    data base       = ./N2.db
    status          = startup
    nproc           =        1
    time left       =     -1s



           Memory information
           ------------------

    heap     =   32768001 doubles =    250.0 Mbytes
    stack    =   32768001 doubles =    250.0 Mbytes
    global   =   65536000 doubles =    500.0 Mbytes (distinct from heap & stack)
    total    =  131072002 doubles =   1000.0 Mbytes
    verify   = yes
    hardfail = no 


           Directory information
           ---------------------

  0 permanent = .
  0 scratch   = .




                                NWChem Input Module
                                -------------------



 Scaling coordinates for geometry "geometry" by  1.889725989
 (inverse scale =  0.529177249)

 ORDER OF PRIMARY AXIS IS BEING SET TO 4
 D4H symmetry detected

          ------
          auto-z
          ------


                             Geometry "geometry" -> ""
                             -------------------------

 Output coordinates in angstroms (scale by  1.889725989 to convert to a.u.)

  No.       Tag          Charge          X              Y              Z
 ---- ---------------- ---------- -------------- -------------- --------------
    1 N                    7.0000     0.00000000     0.00000000    -0.55000000
    2 N                    7.0000     0.00000000     0.00000000     0.55000000

      Atomic Mass 
      ----------- 

      N                 14.003070


 Effective nuclear repulsion energy (a.u.)      23.5724410918

            Nuclear Dipole moment (a.u.) 
            ----------------------------
        X                 Y               Z
 ---------------- ---------------- ----------------
     0.0000000000     0.0000000000     0.0000000000

      Symmetry information
      --------------------

 Group name             D4h       
 Group number             28
 Group order              16
 No. of unique centers     1

      Symmetry unique atoms

     1



                                Z-matrix (autoz)
                                -------- 

 Units are Angstrom for bonds and degrees for angles

      Type          Name      I     J     K     L     M      Value
      ----------- --------  ----- ----- ----- ----- ----- ----------
    1 Stretch                  1     2                       1.10000


            XYZ format geometry
            -------------------
     2
 geometry
 N                     0.00000000     0.00000000    -0.55000000
 N                     0.00000000     0.00000000     0.55000000

 ==============================================================================
                                internuclear distances
 ------------------------------------------------------------------------------
       center one      |      center two      | atomic units |  angstroms
 ------------------------------------------------------------------------------
    2 N                |   1 N                |     2.07870  |     1.10000
 ------------------------------------------------------------------------------
                         number of included internuclear distances:          1
 ==============================================================================



                                  N2 dft optimize
                                  ---------------
  library name resolved from: environment
  library file name is: </Users/chenzheng/Google Drive/nano266/resources/nwchem_basis/>
  
                      Basis "ao basis" -> "" (cartesian)
                      -----
  N (Nitrogen)
  ------------
            Exponent  Coefficients 
       -------------- ---------------------------------------------------------
  1 S  4.17351100E+03  0.001835
  1 S  6.27457900E+02  0.013995
  1 S  1.42902100E+02  0.068587
  1 S  4.02343300E+01  0.232241
  1 S  1.28202100E+01  0.469070
  1 S  4.39043700E+00  0.360455

  2 S  1.16263580E+01 -0.114961
  2 S  2.71628000E+00 -0.169118
  2 S  7.72218000E-01  1.145852

  3 P  1.16263580E+01  0.067580
  3 P  2.71628000E+00  0.323907
  3 P  7.72218000E-01  0.740895

  4 S  2.12031300E-01  1.000000

  5 P  2.12031300E-01  1.000000

  6 S  6.39000000E-02  1.000000

  7 P  6.39000000E-02  1.000000

  8 D  8.00000000E-01  1.000000



 Summary of "ao basis" -> "" (cartesian)
 ------------------------------------------------------------------------------
       Tag                 Description            Shells   Functions and Types
 ---------------- ------------------------------  ------  ---------------------
 N                          6-31+G*                  8       19   4s3p1d




                           NWChem Geometry Optimization
                           ----------------------------




                                  N2 dft optimize


 maximum gradient threshold         (gmax) =   0.000450
 rms gradient threshold             (grms) =   0.000300
 maximum cartesian step threshold   (xmax) =   0.001800
 rms cartesian step threshold       (xrms) =   0.001200
 fixed trust radius                (trust) =   0.300000
 maximum step size to saddle      (sadstp) =   0.100000
 energy precision                  (eprec) =   5.0D-06
 maximum number of steps          (nptopt) =   20
 initial hessian option           (inhess) =    0
 line search option               (linopt) =    1
 hessian update option            (modupd) =    1
 saddle point option              (modsad) =    0
 initial eigen-mode to follow     (moddir) =    0
 initial variable to follow       (vardir) =    0
 follow first negative mode     (firstneg) =    T
 apply conjugacy                    (opcg) =    F
 source of zmatrix                         =   autoz   


          -------------------
          Energy Minimization
          -------------------


 Names of Z-matrix variables 
    1         

 Variables with the same non-blank name are constrained to be equal


 Using diagonal initial Hessian 
 Scaling for Hessian diagonals: bonds = 1.00  angles = 0.25  torsions = 0.10

          --------
          Step   0
          --------


                         Geometry "geometry" -> "geometry"
                         ---------------------------------

 Output coordinates in angstroms (scale by  1.889725989 to convert to a.u.)

  No.       Tag          Charge          X              Y              Z
 ---- ---------------- ---------- -------------- -------------- --------------
    1 N                    7.0000     0.00000000     0.00000000    -0.55000000
    2 N                    7.0000     0.00000000     0.00000000     0.55000000

      Atomic Mass 
      ----------- 

      N                 14.003070


 Effective nuclear repulsion energy (a.u.)      23.5724410918

            Nuclear Dipole moment (a.u.) 
            ----------------------------
        X                 Y               Z
 ---------------- ---------------- ----------------
     0.0000000000     0.0000000000     0.0000000000

      Symmetry information
      --------------------

 Group name             D4h       
 Group number             28
 Group order              16
 No. of unique centers     1

      Symmetry unique atoms

     1


                                 NWChem DFT Module
                                 -----------------


                                  N2 dft optimize


  Caching 1-el integrals 

            General Information
            -------------------
          SCF calculation type: DFT
          Wavefunction type:  closed shell.
          No. of atoms     :     2
          No. of electrons :    14
           Alpha electrons :     7
            Beta electrons :     7
          Charge           :     0
          Spin multiplicity:     1
          Use of symmetry is: on ; symmetry adaption is: on 
          Maximum number of iterations:  30
          AO basis - number of functions:    38
                     number of shells:    16
          Convergence on energy requested: 1.00D-06
          Convergence on density requested: 1.00D-05
          Convergence on gradient requested: 5.00D-04

              XC Information
              --------------
                         B3LYP Method XC Potential
                     Hartree-Fock (Exact) Exchange  0.200          
                        Slater Exchange Functional  0.800 local    
                    Becke 1988 Exchange Functional  0.720 non-local
              Lee-Yang-Parr Correlation Functional  0.810          
                  VWN I RPA Correlation Functional  0.190 local    

             Grid Information
             ----------------
          Grid used for XC integration:  medium    
          Radial quadrature: Mura-Knowles        
          Angular quadrature: Lebedev. 
          Tag              B.-S. Rad. Rad. Pts. Rad. Cut. Ang. Pts.
          ---              ---------- --------- --------- ---------
          N                   0.65       49           8.0       434
          Grid pruning is: on 
          Number of quadrature shells:    49
          Spatial weights used:  Erf1

          Convergence Information
          -----------------------
          Convergence aids based upon iterative change in 
          total energy or number of iterations. 
          Levelshifting, if invoked, occurs when the 
          HOMO/LUMO gap drops below (HL_TOL): 1.00D-02
          DIIS, if invoked, will attempt to extrapolate 
          using up to (NFOCK): 10 stored Fock matrices.

                    Damping( 0%)  Levelshifting(0.5)       DIIS
                  --------------- ------------------- ---------------
          dE  on:    start            ASAP                start   
          dE off:    2 iters         30 iters            30 iters 


      Screening Tolerance Information
      -------------------------------
          Density screening/tol_rho: 1.00D-10
          AO Gaussian exp screening on grid/accAOfunc:  14
          CD Gaussian exp screening on grid/accCDfunc:  20
          XC Gaussian exp screening on grid/accXCfunc:  20
          Schwarz screening/accCoul: 1.00D-08


      Superposition of Atomic Density Guess
      -------------------------------------

 Sum of atomic energies:        -108.59128415

      Non-variational initial energy
      ------------------------------

 Total energy =    -109.086212
 1-e energy   =    -193.626428
 2-e energy   =      60.967775
 HOMO         =      -0.432196
 LUMO         =       0.010758


      Symmetry analysis of molecular orbitals - initial
      -------------------------------------------------


 !! scf_movecs_sym_adapt:    4 vectors were symmetry contaminated

  Symmetry fudging

 !! scf_movecs_sym_adapt:    4 vectors were symmetry contaminated

  Numbering of irreducible representations: 

     1 a1g         2 a1u         3 a2g         4 a2u         5 b1g     
     6 b1u         7 b2g         8 b2u         9 eg         10 eu      

  Orbital symmetries:

     1 a1g         2 a2u         3 a1g         4 a2u         5 eu      
     6 eu          7 a1g         8 eg          9 eg         10 a2u     
    11 a1g        12 eu         13 eu         14 a1g        15 eg      
    16 eg         17 a2u     

   Time after variat. SCF:      0.1
   Time prior to 1st pass:      0.1

 Integral file          = ./N2.aoints.0
 Record size in doubles =  65536        No. of integs per rec  =  43688
 Max. records in memory =      2        Max. records in file   = 187803
 No. of bits per label  =      8        No. of bits per value  =     64


 #quartets = 6.345D+03 #integrals = 5.603D+04 #direct =  0.0% #cached =100.0%


 Grid_pts file          = ./N2.gridpts.0
 Record size in doubles =  12289        No. of grid_pts per rec  =   3070
 Max. records in memory =      9        Max. recs in file   =   1001538


           Memory utilization after 1st SCF pass: 
           Heap Space remaining (MW):       32.52            32524411
          Stack Space remaining (MW):       32.77            32767697

   convergence    iter        energy       DeltaE   RMS-Dens  Diis-err    time
 ---------------- ----- ----------------- --------- --------- ---------  ------
 d= 0,ls=0.0,diis     1   -109.5109082939 -1.33D+02  1.56D-02  2.33D-01     0.2
 d= 0,ls=0.0,diis     2   -109.5247207816 -1.38D-02  1.21D-02  4.19D-02     0.3
 d= 0,ls=0.0,diis     3   -109.5292936986 -4.57D-03  2.30D-03  3.40D-03     0.3
 d= 0,ls=0.0,diis     4   -109.5297044102 -4.11D-04  9.53D-05  9.14D-07     0.3
 d= 0,ls=0.0,diis     5   -109.5297045331 -1.23D-07  4.37D-06  4.60D-08     0.3


         Total DFT energy =     -109.529704533070
      One electron energy =     -194.243961089788
           Coulomb energy =       74.805379071632
    Exchange-Corr. energy =      -13.663563606719
 Nuclear repulsion energy =       23.572441091805

 Numeric. integr. density =       13.999999978207

     Total iterative time =      0.2s



                  Occupations of the irreducible representations
                  ----------------------------------------------

                     irrep           alpha         beta
                     --------     --------     --------
                     a1g               3.0          3.0
                     a1u               0.0          0.0
                     a2g               0.0          0.0
                     a2u               2.0          2.0
                     b1g               0.0          0.0
                     b1u               0.0          0.0
                     b2g               0.0          0.0
                     b2u               0.0          0.0
                     eg                0.0          0.0
                     eu                2.0          2.0


                       DFT Final Molecular Orbital Analysis
                       ------------------------------------

 Vector    1  Occ=2.000000D+00  E=-1.445842D+01  Symmetry=a1g
              MO Center=  0.0D+00,  0.0D+00, -5.6D-17, r^2= 3.2D-01
   Bfn.  Coefficient  Atom+Function         Bfn.  Coefficient  Atom+Function  
  ----- ------------  ---------------      ----- ------------  ---------------
     1      0.701878  1 N  s                 20      0.701878  2 N  s          

 Vector    2  Occ=2.000000D+00  E=-1.445669D+01  Symmetry=a2u
              MO Center=  2.8D-19, -1.1D-18, -5.6D-17, r^2= 3.2D-01
   Bfn.  Coefficient  Atom+Function         Bfn.  Coefficient  Atom+Function  
  ----- ------------  ---------------      ----- ------------  ---------------
     1      0.702074  1 N  s                 20     -0.702074  2 N  s          

 Vector    3  Occ=2.000000D+00  E=-1.138780D+00  Symmetry=a1g
              MO Center=  4.2D-19,  3.0D-18,  7.1D-16, r^2= 4.3D-01
   Bfn.  Coefficient  Atom+Function         Bfn.  Coefficient  Atom+Function  
  ----- ------------  ---------------      ----- ------------  ---------------
     2      0.335886  1 N  s                 21      0.335886  2 N  s          
     5      0.231270  1 N  pz                24     -0.231270  2 N  pz         
     6      0.213086  1 N  s                 25      0.213086  2 N  s          
     1     -0.162137  1 N  s                 20     -0.162137  2 N  s          

 Vector    4  Occ=2.000000D+00  E=-5.627053D-01  Symmetry=a2u
              MO Center= -7.9D-18, -7.5D-18, -2.1D-15, r^2= 1.3D+00
   Bfn.  Coefficient  Atom+Function         Bfn.  Coefficient  Atom+Function  
  ----- ------------  ---------------      ----- ------------  ---------------
     6      0.567051  1 N  s                 25     -0.567051  2 N  s          
    10     -0.338324  1 N  s                 29      0.338324  2 N  s          
     2      0.334634  1 N  s                 21     -0.334634  2 N  s          
     5     -0.215722  1 N  pz                24     -0.215722  2 N  pz         
     1     -0.152152  1 N  s                 20      0.152152  2 N  s          

 Vector    5  Occ=2.000000D+00  E=-4.746185D-01  Symmetry=eu
              MO Center= -1.0D-18, -2.3D-18,  2.5D-16, r^2= 9.0D-01
   Bfn.  Coefficient  Atom+Function         Bfn.  Coefficient  Atom+Function  
  ----- ------------  ---------------      ----- ------------  ---------------
     4      0.436568  1 N  py                23      0.436568  2 N  py         
     8      0.213161  1 N  py                27      0.213161  2 N  py         

 Vector    6  Occ=2.000000D+00  E=-4.746185D-01  Symmetry=eu
              MO Center= -9.6D-17, -6.5D-18,  1.7D-16, r^2= 9.0D-01
   Bfn.  Coefficient  Atom+Function         Bfn.  Coefficient  Atom+Function  
  ----- ------------  ---------------      ----- ------------  ---------------
     3      0.436568  1 N  px                22      0.436568  2 N  px         
     7      0.213161  1 N  px                26      0.213161  2 N  px         

 Vector    7  Occ=2.000000D+00  E=-4.393541D-01  Symmetry=a1g
              MO Center=  1.1D-18, -3.1D-19,  1.3D-15, r^2= 1.3D+00
   Bfn.  Coefficient  Atom+Function         Bfn.  Coefficient  Atom+Function  
  ----- ------------  ---------------      ----- ------------  ---------------
     5      0.458715  1 N  pz                24     -0.458715  2 N  pz         
     6     -0.272181  1 N  s                 25     -0.272181  2 N  s          
     9      0.175996  1 N  pz                28     -0.175996  2 N  pz         

 Vector    8  Occ=0.000000D+00  E=-3.913660D-02  Symmetry=eg
              MO Center= -2.4D-17, -3.7D-18, -6.7D-16, r^2= 1.7D+00
   Bfn.  Coefficient  Atom+Function         Bfn.  Coefficient  Atom+Function  
  ----- ------------  ---------------      ----- ------------  ---------------
     4      0.484407  1 N  py                23     -0.484407  2 N  py         
     8      0.451956  1 N  py                27     -0.451956  2 N  py         
    12      0.421661  1 N  py                31     -0.421661  2 N  py         

 Vector    9  Occ=0.000000D+00  E=-3.913660D-02  Symmetry=eg
              MO Center= -1.8D-17,  9.8D-17,  2.2D-16, r^2= 1.7D+00
   Bfn.  Coefficient  Atom+Function         Bfn.  Coefficient  Atom+Function  
  ----- ------------  ---------------      ----- ------------  ---------------
     3      0.484407  1 N  px                22     -0.484407  2 N  px         
     7      0.451956  1 N  px                26     -0.451956  2 N  px         
    11      0.421661  1 N  px                30     -0.421661  2 N  px         

 Vector   10  Occ=0.000000D+00  E= 6.390064D-02  Symmetry=a1g
              MO Center=  9.4D-17, -2.7D-17, -2.6D-16, r^2= 6.2D+00
   Bfn.  Coefficient  Atom+Function         Bfn.  Coefficient  Atom+Function  
  ----- ------------  ---------------      ----- ------------  ---------------
    10      0.890149  1 N  s                 29      0.890149  2 N  s          
     6     -0.665040  1 N  s                 25     -0.665040  2 N  s          
    13     -0.315042  1 N  pz                32      0.315042  2 N  pz         
     9      0.188891  1 N  pz                28     -0.188891  2 N  pz         

 Vector   11  Occ=0.000000D+00  E= 7.959919D-02  Symmetry=a2u
              MO Center=  9.2D-19, -2.1D-19,  1.6D-14, r^2= 9.2D+00
   Bfn.  Coefficient  Atom+Function         Bfn.  Coefficient  Atom+Function  
  ----- ------------  ---------------      ----- ------------  ---------------
    10     11.537382  1 N  s                 29    -11.537382  2 N  s          
    13      3.833565  1 N  pz                32      3.833565  2 N  pz         
     9     -0.218918  1 N  pz                28     -0.218918  2 N  pz         

 Vector   12  Occ=0.000000D+00  E= 9.238026D-02  Symmetry=eu
              MO Center=  4.6D-18, -4.8D-18, -1.9D-16, r^2= 6.7D+00
   Bfn.  Coefficient  Atom+Function         Bfn.  Coefficient  Atom+Function  
  ----- ------------  ---------------      ----- ------------  ---------------
    11      0.509998  1 N  px                30      0.509998  2 N  px         
    12     -0.351753  1 N  py                31     -0.351753  2 N  py         
     7     -0.176277  1 N  px                26     -0.176277  2 N  px         

 Vector   13  Occ=0.000000D+00  E= 9.238026D-02  Symmetry=eu
              MO Center=  1.9D-18,  5.0D-18,  2.4D-15, r^2= 6.7D+00
   Bfn.  Coefficient  Atom+Function         Bfn.  Coefficient  Atom+Function  
  ----- ------------  ---------------      ----- ------------  ---------------
    12      0.509998  1 N  py                31      0.509998  2 N  py         
    11      0.351753  1 N  px                30      0.351753  2 N  px         
     8     -0.176277  1 N  py                27     -0.176277  2 N  py         

 Vector   14  Occ=0.000000D+00  E= 1.409737D-01  Symmetry=a1g
              MO Center=  2.8D-17, -6.6D-18,  6.0D-15, r^2= 7.5D+00
   Bfn.  Coefficient  Atom+Function         Bfn.  Coefficient  Atom+Function  
  ----- ------------  ---------------      ----- ------------  ---------------
    13      1.537618  1 N  pz                32     -1.537618  2 N  pz         
     6     -0.422965  1 N  s                 25     -0.422965  2 N  s          

 Vector   15  Occ=0.000000D+00  E= 1.740746D-01  Symmetry=eg
              MO Center= -2.8D-18,  1.2D-18, -7.8D-16, r^2= 8.1D+00
   Bfn.  Coefficient  Atom+Function         Bfn.  Coefficient  Atom+Function  
  ----- ------------  ---------------      ----- ------------  ---------------
    12      1.865380  1 N  py                31     -1.865380  2 N  py         
    11     -1.095436  1 N  px                30      1.095436  2 N  px         
     8     -0.371587  1 N  py                27      0.371587  2 N  py         
     7      0.218213  1 N  px                26     -0.218213  2 N  px         
     4     -0.199648  1 N  py                23      0.199648  2 N  py         

 Vector   16  Occ=0.000000D+00  E= 1.740746D-01  Symmetry=eg
              MO Center= -4.2D-17, -4.2D-17, -1.6D-15, r^2= 8.1D+00
   Bfn.  Coefficient  Atom+Function         Bfn.  Coefficient  Atom+Function  
  ----- ------------  ---------------      ----- ------------  ---------------
    11      1.865380  1 N  px                30     -1.865380  2 N  px         
    12      1.095436  1 N  py                31     -1.095436  2 N  py         
     7     -0.371587  1 N  px                26      0.371587  2 N  px         
     8     -0.218213  1 N  py                27      0.218213  2 N  py         
     3     -0.199648  1 N  px                22      0.199648  2 N  px         

 Vector   17  Occ=0.000000D+00  E= 2.594412D-01  Symmetry=a2u
              MO Center=  9.7D-18,  1.8D-17, -6.2D-14, r^2= 8.7D+00
   Bfn.  Coefficient  Atom+Function         Bfn.  Coefficient  Atom+Function  
  ----- ------------  ---------------      ----- ------------  ---------------
    10     39.188914  1 N  s                 29    -39.188914  2 N  s          
    13     10.440123  1 N  pz                32     10.440123  2 N  pz         
     6     -0.679259  1 N  s                 25      0.679259  2 N  s          
     9      0.344644  1 N  pz                28      0.344644  2 N  pz         

 Vector   18  Occ=0.000000D+00  E= 5.188648D-01  Symmetry=a2u
              MO Center=  3.8D-17,  7.1D-18, -1.8D-15, r^2= 3.1D+00
   Bfn.  Coefficient  Atom+Function         Bfn.  Coefficient  Atom+Function  
  ----- ------------  ---------------      ----- ------------  ---------------
     6      4.488963  1 N  s                 25     -4.488963  2 N  s          
    10     -3.955771  1 N  s                 29      3.955771  2 N  s          
     9      2.979235  1 N  pz                28      2.979235  2 N  pz         
    13     -1.453844  1 N  pz                32     -1.453844  2 N  pz         
     5      0.300935  1 N  pz                24      0.300935  2 N  pz         


 center of mass
 --------------
 x =   0.00000000 y =   0.00000000 z =   0.00000000

 moments of inertia (a.u.)
 ------------------
          30.253547438217           0.000000000000           0.000000000000
           0.000000000000          30.253547438217           0.000000000000
           0.000000000000           0.000000000000           0.000000000000

     Multipole analysis of the density
     ---------------------------------

     L   x y z        total         alpha         beta         nuclear
     -   - - -        -----         -----         ----         -------
     0   0 0 0     -0.000000     -7.000000     -7.000000     14.000000

     1   1 0 0      0.000000      0.000000      0.000000      0.000000
     1   0 1 0      0.000000      0.000000      0.000000      0.000000
     1   0 0 1     -0.000000     -0.000000     -0.000000      0.000000

     2   2 0 0     -7.695360     -3.847680     -3.847680      0.000000
     2   1 1 0     -0.000000     -0.000000     -0.000000      0.000000
     2   1 0 1      0.000000      0.000000      0.000000      0.000000
     2   0 2 0     -7.695360     -3.847680     -3.847680      0.000000
     2   0 1 1     -0.000000     -0.000000     -0.000000      0.000000
     2   0 0 2     -8.878273    -12.000865    -12.000865     15.123457


 Parallel integral file used       2 records with       0 large values



                            NWChem DFT Gradient Module
                            --------------------------


                                  N2 dft optimize



  charge          =   0.00
  wavefunction    = closed shell

  Using symmetry


                         DFT ENERGY GRADIENTS

    atom               coordinates                        gradient
                 x          y          z           x          y          z
   1 N       0.000000   0.000000  -1.039349    0.000000   0.000000   0.015732
   2 N       0.000000   0.000000   1.039349    0.000000   0.000000  -0.015732

                 ----------------------------------------
                 |  Time  |  1-e(secs)   |  2-e(secs)   |
                 ----------------------------------------
                 |  CPU   |       0.00   |       0.11   |
                 ----------------------------------------
                 |  WALL  |       0.00   |       0.11   |
                 ----------------------------------------

@ Step       Energy      Delta E   Gmax     Grms     Xrms     Xmax   Walltime
@ ---- ---------------- -------- -------- -------- -------- -------- --------
@    0    -109.52970453  0.0D+00  0.01573  0.01573  0.00000  0.00000      0.5
                                                                    



                                Z-matrix (autoz)
                                -------- 

 Units are Angstrom for bonds and degrees for angles

      Type          Name      I     J     K     L     M      Value     Gradient
      ----------- --------  ----- ----- ----- ----- ----- ---------- ----------
    1 Stretch                  1     2                       1.10000   -0.01573


                                 NWChem DFT Module
                                 -----------------


                                  N2 dft optimize


  Caching 1-el integrals 

            General Information
            -------------------
          SCF calculation type: DFT
          Wavefunction type:  closed shell.
          No. of atoms     :     2
          No. of electrons :    14
           Alpha electrons :     7
            Beta electrons :     7
          Charge           :     0
          Spin multiplicity:     1
          Use of symmetry is: on ; symmetry adaption is: on 
          Maximum number of iterations:  30
          AO basis - number of functions:    38
                     number of shells:    16
          Convergence on energy requested: 1.00D-06
          Convergence on density requested: 1.00D-05
          Convergence on gradient requested: 5.00D-04

              XC Information
              --------------
                         B3LYP Method XC Potential
                     Hartree-Fock (Exact) Exchange  0.200          
                        Slater Exchange Functional  0.800 local    
                    Becke 1988 Exchange Functional  0.720 non-local
              Lee-Yang-Parr Correlation Functional  0.810          
                  VWN I RPA Correlation Functional  0.190 local    

             Grid Information
             ----------------
          Grid used for XC integration:  medium    
          Radial quadrature: Mura-Knowles        
          Angular quadrature: Lebedev. 
          Tag              B.-S. Rad. Rad. Pts. Rad. Cut. Ang. Pts.
          ---              ---------- --------- --------- ---------
          N                   0.65       49           8.0       434
          Grid pruning is: on 
          Number of quadrature shells:    49
          Spatial weights used:  Erf1

          Convergence Information
          -----------------------
          Convergence aids based upon iterative change in 
          total energy or number of iterations. 
          Levelshifting, if invoked, occurs when the 
          HOMO/LUMO gap drops below (HL_TOL): 1.00D-02
          DIIS, if invoked, will attempt to extrapolate 
          using up to (NFOCK): 10 stored Fock matrices.

                    Damping( 0%)  Levelshifting(0.5)       DIIS
                  --------------- ------------------- ---------------
          dE  on:    start            ASAP                start   
          dE off:    2 iters         30 iters            30 iters 


      Screening Tolerance Information
      -------------------------------
          Density screening/tol_rho: 1.00D-10
          AO Gaussian exp screening on grid/accAOfunc:  14
          CD Gaussian exp screening on grid/accCDfunc:  20
          XC Gaussian exp screening on grid/accXCfunc:  20
          Schwarz screening/accCoul: 1.00D-08


 Loading old vectors from job with title :

N2 dft optimize


      Symmetry analysis of molecular orbitals - initial
      -------------------------------------------------

  Numbering of irreducible representations: 

     1 a1g         2 a1u         3 a2g         4 a2u         5 b1g     
     6 b1u         7 b2g         8 b2u         9 eg         10 eu      

  Orbital symmetries:

     1 a1g         2 a2u         3 a1g         4 a2u         5 eu      
     6 eu          7 a1g         8 eg          9 eg         10 a1g     
    11 a2u        12 eu         13 eu         14 a1g        15 eg      
    16 eg         17 a2u     

   Time after variat. SCF:      0.5
   Time prior to 1st pass:      0.5

 Integral file          = ./N2.aoints.0
 Record size in doubles =  65536        No. of integs per rec  =  43688
 Max. records in memory =      2        Max. records in file   = 187801
 No. of bits per label  =      8        No. of bits per value  =     64


 #quartets = 6.345D+03 #integrals = 5.603D+04 #direct =  0.0% #cached =100.0%


 Grid_pts file          = ./N2.gridpts.0
 Record size in doubles =  12289        No. of grid_pts per rec  =   3070
 Max. records in memory =      9        Max. recs in file   =   1001528


           Memory utilization after 1st SCF pass: 
           Heap Space remaining (MW):       32.52            32524411
          Stack Space remaining (MW):       32.77            32767697

   convergence    iter        energy       DeltaE   RMS-Dens  Diis-err    time
 ---------------- ----- ----------------- --------- --------- ---------  ------
 d= 0,ls=0.0,diis     1   -109.5294900211 -1.33D+02  1.49D-03  8.41D-04     0.6
 d= 0,ls=0.0,diis     2   -109.5295878374 -9.78D-05  7.45D-04  1.96D-04     0.6
 d= 0,ls=0.0,diis     3   -109.5296096884 -2.19D-05  1.02D-04  9.31D-06     0.6
 d= 0,ls=0.0,diis     4   -109.5296108541 -1.17D-06  8.99D-06  8.39D-09     0.7
 d= 0,ls=0.0,diis     5   -109.5296108551 -9.86D-10  3.70D-07  2.51D-10     0.7


         Total DFT energy =     -109.529610855109
      One electron energy =     -193.718925742726
           Coulomb energy =       74.537271137129
    Exchange-Corr. energy =      -13.647110815688
 Nuclear repulsion energy =       23.299154566176

 Numeric. integr. density =       14.000000214826

     Total iterative time =      0.2s



                  Occupations of the irreducible representations
                  ----------------------------------------------

                     irrep           alpha         beta
                     --------     --------     --------
                     a1g               3.0          3.0
                     a1u               0.0          0.0
                     a2g               0.0          0.0
                     a2u               2.0          2.0
                     b1g               0.0          0.0
                     b1u               0.0          0.0
                     b2g               0.0          0.0
                     b2u               0.0          0.0
                     eg                0.0          0.0
                     eu                2.0          2.0


                       DFT Final Molecular Orbital Analysis
                       ------------------------------------

 Vector    1  Occ=2.000000D+00  E=-1.446142D+01  Symmetry=a1g
              MO Center=  0.0D+00,  0.0D+00, -5.6D-17, r^2= 3.3D-01
   Bfn.  Coefficient  Atom+Function         Bfn.  Coefficient  Atom+Function  
  ----- ------------  ---------------      ----- ------------  ---------------
     1      0.701904  1 N  s                 20      0.701904  2 N  s          

 Vector    2  Occ=2.000000D+00  E=-1.445987D+01  Symmetry=a2u
              MO Center=  0.0D+00,  0.0D+00, -2.2D-16, r^2= 3.3D-01
   Bfn.  Coefficient  Atom+Function         Bfn.  Coefficient  Atom+Function  
  ----- ------------  ---------------      ----- ------------  ---------------
     1      0.702067  1 N  s                 20     -0.702067  2 N  s          

 Vector    3  Occ=2.000000D+00  E=-1.131118D+00  Symmetry=a1g
              MO Center=  3.8D-19,  2.0D-18, -5.8D-16, r^2= 4.4D-01
   Bfn.  Coefficient  Atom+Function         Bfn.  Coefficient  Atom+Function  
  ----- ------------  ---------------      ----- ------------  ---------------
     2      0.336281  1 N  s                 21      0.336281  2 N  s          
     5      0.228618  1 N  pz                24     -0.228618  2 N  pz         
     6      0.215815  1 N  s                 25      0.215815  2 N  s          
     1     -0.161127  1 N  s                 20     -0.161127  2 N  s          

 Vector    4  Occ=2.000000D+00  E=-5.662217D-01  Symmetry=a2u
              MO Center= -1.1D-17,  6.0D-18, -3.2D-15, r^2= 1.3D+00
   Bfn.  Coefficient  Atom+Function         Bfn.  Coefficient  Atom+Function  
  ----- ------------  ---------------      ----- ------------  ---------------
     6      0.564593  1 N  s                 25     -0.564593  2 N  s          
     2      0.336939  1 N  s                 21     -0.336939  2 N  s          
    10     -0.332283  1 N  s                 29      0.332283  2 N  s          
     5     -0.212546  1 N  pz                24     -0.212546  2 N  pz         
     1     -0.152627  1 N  s                 20      0.152627  2 N  s          

 Vector    5  Occ=2.000000D+00  E=-4.706090D-01  Symmetry=eu
              MO Center=  9.6D-18,  1.3D-17, -1.1D-16, r^2= 9.1D-01
   Bfn.  Coefficient  Atom+Function         Bfn.  Coefficient  Atom+Function  
  ----- ------------  ---------------      ----- ------------  ---------------
     4      0.455513  1 N  py                23      0.455513  2 N  py         
     8      0.224872  1 N  py                27      0.224872  2 N  py         

 Vector    6  Occ=2.000000D+00  E=-4.706090D-01  Symmetry=eu
              MO Center=  3.1D-16,  1.6D-17, -3.3D-16, r^2= 9.1D-01
   Bfn.  Coefficient  Atom+Function         Bfn.  Coefficient  Atom+Function  
  ----- ------------  ---------------      ----- ------------  ---------------
     3      0.455513  1 N  px                22      0.455513  2 N  px         
     7      0.224872  1 N  px                26      0.224872  2 N  px         

 Vector    7  Occ=2.000000D+00  E=-4.388543D-01  Symmetry=a1g
              MO Center= -3.5D-18, -6.3D-17,  3.4D-15, r^2= 1.4D+00
   Bfn.  Coefficient  Atom+Function         Bfn.  Coefficient  Atom+Function  
  ----- ------------  ---------------      ----- ------------  ---------------
     5      0.459127  1 N  pz                24     -0.459127  2 N  pz         
     6     -0.270658  1 N  s                 25     -0.270658  2 N  s          
     9      0.177824  1 N  pz                28     -0.177824  2 N  pz         

 Vector    8  Occ=0.000000D+00  E=-4.480950D-02  Symmetry=eg
              MO Center=  3.6D-26,  4.6D-23,  0.0D+00, r^2= 1.7D+00
   Bfn.  Coefficient  Atom+Function         Bfn.  Coefficient  Atom+Function  
  ----- ------------  ---------------      ----- ------------  ---------------
     4      0.489677  1 N  py                23     -0.489677  2 N  py         
     8      0.450524  1 N  py                27     -0.450524  2 N  py         
    12      0.402520  1 N  py                31     -0.402520  2 N  py         

 Vector    9  Occ=0.000000D+00  E=-4.480950D-02  Symmetry=eg
              MO Center= -1.8D-19, -2.8D-18,  1.1D-16, r^2= 1.7D+00
   Bfn.  Coefficient  Atom+Function         Bfn.  Coefficient  Atom+Function  
  ----- ------------  ---------------      ----- ------------  ---------------
     3      0.489677  1 N  px                22     -0.489677  2 N  px         
     7      0.450524  1 N  px                26     -0.450524  2 N  px         
    11      0.402520  1 N  px                30     -0.402520  2 N  px         

 Vector   10  Occ=0.000000D+00  E= 6.354066D-02  Symmetry=a1g
              MO Center= -3.6D-16, -8.5D-18, -1.1D-16, r^2= 6.2D+00
   Bfn.  Coefficient  Atom+Function         Bfn.  Coefficient  Atom+Function  
  ----- ------------  ---------------      ----- ------------  ---------------
    10      0.890947  1 N  s                 29      0.890947  2 N  s          
     6     -0.666664  1 N  s                 25     -0.666664  2 N  s          
    13     -0.307618  1 N  pz                32      0.307618  2 N  pz         
     9      0.186453  1 N  pz                28     -0.186453  2 N  pz         

 Vector   11  Occ=0.000000D+00  E= 7.924799D-02  Symmetry=a2u
              MO Center=  1.7D-19, -1.3D-22,  2.0D-14, r^2= 9.2D+00
   Bfn.  Coefficient  Atom+Function         Bfn.  Coefficient  Atom+Function  
  ----- ------------  ---------------      ----- ------------  ---------------
    10     11.068888  1 N  s                 29    -11.068888  2 N  s          
    13      3.744883  1 N  pz                32      3.744883  2 N  pz         
     9     -0.210442  1 N  pz                28     -0.210442  2 N  pz         

 Vector   12  Occ=0.000000D+00  E= 9.267538D-02  Symmetry=eu
              MO Center=  4.4D-24,  2.8D-24,  1.7D-16, r^2= 6.7D+00
   Bfn.  Coefficient  Atom+Function         Bfn.  Coefficient  Atom+Function  
  ----- ------------  ---------------      ----- ------------  ---------------
    11      0.524147  1 N  px                30      0.524147  2 N  px         
    12      0.332582  1 N  py                31      0.332582  2 N  py         
     7     -0.182936  1 N  px                26     -0.182936  2 N  px         

 Vector   13  Occ=0.000000D+00  E= 9.267538D-02  Symmetry=eu
              MO Center=  7.9D-18, -6.2D-18,  1.2D-15, r^2= 6.7D+00
   Bfn.  Coefficient  Atom+Function         Bfn.  Coefficient  Atom+Function  
  ----- ------------  ---------------      ----- ------------  ---------------
    12      0.524147  1 N  py                31      0.524147  2 N  py         
    11     -0.332582  1 N  px                30     -0.332582  2 N  px         
     8     -0.182936  1 N  py                27     -0.182936  2 N  py         

 Vector   14  Occ=0.000000D+00  E= 1.407843D-01  Symmetry=a1g
              MO Center=  8.8D-17,  1.4D-17,  7.9D-14, r^2= 7.5D+00
   Bfn.  Coefficient  Atom+Function         Bfn.  Coefficient  Atom+Function  
  ----- ------------  ---------------      ----- ------------  ---------------
    13      1.523647  1 N  pz                32     -1.523647  2 N  pz         
     6     -0.419440  1 N  s                 25     -0.419440  2 N  s          

 Vector   15  Occ=0.000000D+00  E= 1.730281D-01  Symmetry=eg
              MO Center= -1.1D-17, -6.1D-18, -2.2D-16, r^2= 8.1D+00
   Bfn.  Coefficient  Atom+Function         Bfn.  Coefficient  Atom+Function  
  ----- ------------  ---------------      ----- ------------  ---------------
    12      1.850909  1 N  py                31     -1.850909  2 N  py         
    11      1.079434  1 N  px                30     -1.079434  2 N  px         
     8     -0.363658  1 N  py                27      0.363658  2 N  py         
     7     -0.212082  1 N  px                26      0.212082  2 N  px         
     4     -0.196308  1 N  py                23      0.196308  2 N  py         

 Vector   16  Occ=0.000000D+00  E= 1.730281D-01  Symmetry=eg
              MO Center=  9.3D-18, -1.5D-17, -4.4D-16, r^2= 8.1D+00
   Bfn.  Coefficient  Atom+Function         Bfn.  Coefficient  Atom+Function  
  ----- ------------  ---------------      ----- ------------  ---------------
    11      1.850909  1 N  px                30     -1.850909  2 N  px         
    12     -1.079434  1 N  py                31      1.079434  2 N  py         
     7     -0.363658  1 N  px                26      0.363658  2 N  px         
     8      0.212082  1 N  py                27     -0.212082  2 N  py         
     3     -0.196308  1 N  px                22      0.196308  2 N  px         

 Vector   17  Occ=0.000000D+00  E= 2.590717D-01  Symmetry=a2u
              MO Center= -1.4D-17,  9.4D-18, -2.1D-13, r^2= 8.7D+00
   Bfn.  Coefficient  Atom+Function         Bfn.  Coefficient  Atom+Function  
  ----- ------------  ---------------      ----- ------------  ---------------
    10     37.867083  1 N  s                 29    -37.867083  2 N  s          
    13     10.208005  1 N  pz                32     10.208005  2 N  pz         
     6     -0.691900  1 N  s                 25      0.691900  2 N  s          
     9      0.338466  1 N  pz                28      0.338466  2 N  pz         

 Vector   18  Occ=0.000000D+00  E= 5.074213D-01  Symmetry=a2u
              MO Center=  2.7D-17,  7.9D-17,  2.2D-16, r^2= 3.0D+00
   Bfn.  Coefficient  Atom+Function         Bfn.  Coefficient  Atom+Function  
  ----- ------------  ---------------      ----- ------------  ---------------
     6      4.224831  1 N  s                 25     -4.224831  2 N  s          
    10     -4.008886  1 N  s                 29      4.008886  2 N  s          
     9      2.845697  1 N  pz                28      2.845697  2 N  pz         
    13     -1.473005  1 N  pz                32     -1.473005  2 N  pz         
     5      0.323377  1 N  pz                24      0.323377  2 N  pz         


 center of mass
 --------------
 x =   0.00000000 y =   0.00000000 z =   0.00000000

 moments of inertia (a.u.)
 ------------------
          30.967425340708           0.000000000000           0.000000000000
           0.000000000000          30.967425340708           0.000000000000
           0.000000000000           0.000000000000           0.000000000000

     Multipole analysis of the density
     ---------------------------------

     L   x y z        total         alpha         beta         nuclear
     -   - - -        -----         -----         ----         -------
     0   0 0 0     -0.000000     -7.000000     -7.000000     14.000000

     1   1 0 0     -0.000000     -0.000000     -0.000000      0.000000
     1   0 1 0      0.000000      0.000000      0.000000      0.000000
     1   0 0 1      0.000000      0.000000      0.000000      0.000000

     2   2 0 0     -7.725436     -3.862718     -3.862718      0.000000
     2   1 1 0     -0.000000     -0.000000     -0.000000      0.000000
     2   1 0 1      0.000000      0.000000      0.000000      0.000000
     2   0 2 0     -7.725436     -3.862718     -3.862718      0.000000
     2   0 1 1     -0.000000     -0.000000     -0.000000      0.000000
     2   0 0 2     -8.886963    -12.183641    -12.183641     15.480318


 Parallel integral file used       2 records with       0 large values

 Line search: 
     step= 1.00 grad=-3.8D-04 hess= 4.8D-04 energy=   -109.529611 mode=bracket 
 new step= 0.40                   predicted energy=   -109.529782

          --------
          Step   1
          --------


                         Geometry "geometry" -> "geometry"
                         ---------------------------------

 Output coordinates in angstroms (scale by  1.889725989 to convert to a.u.)

  No.       Tag          Charge          X              Y              Z
 ---- ---------------- ---------- -------------- -------------- --------------
    1 N                    7.0000     0.00000000     0.00000000    -0.55259245
    2 N                    7.0000     0.00000000     0.00000000     0.55259245

      Atomic Mass 
      ----------- 

      N                 14.003070


 Effective nuclear repulsion energy (a.u.)      23.4618524420

            Nuclear Dipole moment (a.u.) 
            ----------------------------
        X                 Y               Z
 ---------------- ---------------- ----------------
     0.0000000000     0.0000000000     0.0000000000

      Symmetry information
      --------------------

 Group name             D4h       
 Group number             28
 Group order              16
 No. of unique centers     1

      Symmetry unique atoms

     1


                                 NWChem DFT Module
                                 -----------------


                                  N2 dft optimize


  Caching 1-el integrals 

            General Information
            -------------------
          SCF calculation type: DFT
          Wavefunction type:  closed shell.
          No. of atoms     :     2
          No. of electrons :    14
           Alpha electrons :     7
            Beta electrons :     7
          Charge           :     0
          Spin multiplicity:     1
          Use of symmetry is: on ; symmetry adaption is: on 
          Maximum number of iterations:  30
          AO basis - number of functions:    38
                     number of shells:    16
          Convergence on energy requested: 1.00D-06
          Convergence on density requested: 1.00D-05
          Convergence on gradient requested: 5.00D-04

              XC Information
              --------------
                         B3LYP Method XC Potential
                     Hartree-Fock (Exact) Exchange  0.200          
                        Slater Exchange Functional  0.800 local    
                    Becke 1988 Exchange Functional  0.720 non-local
              Lee-Yang-Parr Correlation Functional  0.810          
                  VWN I RPA Correlation Functional  0.190 local    

             Grid Information
             ----------------
          Grid used for XC integration:  medium    
          Radial quadrature: Mura-Knowles        
          Angular quadrature: Lebedev. 
          Tag              B.-S. Rad. Rad. Pts. Rad. Cut. Ang. Pts.
          ---              ---------- --------- --------- ---------
          N                   0.65       49           8.0       434
          Grid pruning is: on 
          Number of quadrature shells:    49
          Spatial weights used:  Erf1

          Convergence Information
          -----------------------
          Convergence aids based upon iterative change in 
          total energy or number of iterations. 
          Levelshifting, if invoked, occurs when the 
          HOMO/LUMO gap drops below (HL_TOL): 1.00D-02
          DIIS, if invoked, will attempt to extrapolate 
          using up to (NFOCK): 10 stored Fock matrices.

                    Damping( 0%)  Levelshifting(0.5)       DIIS
                  --------------- ------------------- ---------------
          dE  on:    start            ASAP                start   
          dE off:    2 iters         30 iters            30 iters 


      Screening Tolerance Information
      -------------------------------
          Density screening/tol_rho: 1.00D-10
          AO Gaussian exp screening on grid/accAOfunc:  14
          CD Gaussian exp screening on grid/accCDfunc:  20
          XC Gaussian exp screening on grid/accXCfunc:  20
          Schwarz screening/accCoul: 1.00D-08


 Loading old vectors from job with title :

N2 dft optimize


      Symmetry analysis of molecular orbitals - initial
      -------------------------------------------------

  Numbering of irreducible representations: 

     1 a1g         2 a1u         3 a2g         4 a2u         5 b1g     
     6 b1u         7 b2g         8 b2u         9 eg         10 eu      

  Orbital symmetries:

     1 a1g         2 a2u         3 a1g         4 a2u         5 eu      
     6 eu          7 a1g         8 eg          9 eg         10 a1g     
    11 a2u        12 eu         13 eu         14 a1g        15 eg      
    16 eg         17 a2u     

   Time after variat. SCF:      0.7
   Time prior to 1st pass:      0.7

 Integral file          = ./N2.aoints.0
 Record size in doubles =  65536        No. of integs per rec  =  43688
 Max. records in memory =      2        Max. records in file   = 187801
 No. of bits per label  =      8        No. of bits per value  =     64


 #quartets = 6.345D+03 #integrals = 5.603D+04 #direct =  0.0% #cached =100.0%


 Grid_pts file          = ./N2.gridpts.0
 Record size in doubles =  12289        No. of grid_pts per rec  =   3070
 Max. records in memory =      9        Max. recs in file   =   1001528


           Memory utilization after 1st SCF pass: 
           Heap Space remaining (MW):       32.52            32524411
          Stack Space remaining (MW):       32.77            32767697

   convergence    iter        energy       DeltaE   RMS-Dens  Diis-err    time
 ---------------- ----- ----------------- --------- --------- ---------  ------
 d= 0,ls=0.0,diis     1   -109.5297371532 -1.33D+02  8.94D-04  3.01D-04     0.9
 d= 0,ls=0.0,diis     2   -109.5297720355 -3.49D-05  4.53D-04  6.95D-05     0.9
 d= 0,ls=0.0,diis     3   -109.5297797709 -7.74D-06  6.24D-05  3.32D-06     0.9
 d= 0,ls=0.0,diis     4   -109.5297801855 -4.15D-07  5.62D-06  3.24D-09     0.9


         Total DFT energy =     -109.529780185487
      One electron energy =     -194.031897122432
           Coulomb energy =       74.697193302006
    Exchange-Corr. energy =      -13.656928807075
 Nuclear repulsion energy =       23.461852442014

 Numeric. integr. density =       14.000000055800

     Total iterative time =      0.2s



                  Occupations of the irreducible representations
                  ----------------------------------------------

                     irrep           alpha         beta
                     --------     --------     --------
                     a1g               3.0          3.0
                     a1u               0.0          0.0
                     a2g               0.0          0.0
                     a2u               2.0          2.0
                     b1g               0.0          0.0
                     b1u               0.0          0.0
                     b2g               0.0          0.0
                     b2u               0.0          0.0
                     eg                0.0          0.0
                     eu                2.0          2.0


                       DFT Final Molecular Orbital Analysis
                       ------------------------------------

 Vector    1  Occ=2.000000D+00  E=-1.445963D+01  Symmetry=a1g
              MO Center=  5.5D-18, -8.5D-18,  1.8D-12, r^2= 3.3D-01
   Bfn.  Coefficient  Atom+Function         Bfn.  Coefficient  Atom+Function  
  ----- ------------  ---------------      ----- ------------  ---------------
     1      0.701889  1 N  s                 20      0.701889  2 N  s          

 Vector    2  Occ=2.000000D+00  E=-1.445797D+01  Symmetry=a2u
              MO Center=  8.9D-33,  1.0D-31, -1.8D-12, r^2= 3.3D-01
   Bfn.  Coefficient  Atom+Function         Bfn.  Coefficient  Atom+Function  
  ----- ------------  ---------------      ----- ------------  ---------------
     1      0.702071  1 N  s                 20     -0.702071  2 N  s          

 Vector    3  Occ=2.000000D+00  E=-1.135699D+00  Symmetry=a1g
              MO Center= -2.1D-18, -7.9D-19, -8.5D-16, r^2= 4.4D-01
   Bfn.  Coefficient  Atom+Function         Bfn.  Coefficient  Atom+Function  
  ----- ------------  ---------------      ----- ------------  ---------------
     2      0.336050  1 N  s                 21      0.336050  2 N  s          
     5      0.230206  1 N  pz                24     -0.230206  2 N  pz         
     6      0.214178  1 N  s                 25      0.214178  2 N  s          
     1     -0.161722  1 N  s                 20     -0.161722  2 N  s          

 Vector    4  Occ=2.000000D+00  E=-5.641209D-01  Symmetry=a2u
              MO Center= -4.6D-35, -5.8D-34,  5.0D-16, r^2= 1.3D+00
   Bfn.  Coefficient  Atom+Function         Bfn.  Coefficient  Atom+Function  
  ----- ------------  ---------------      ----- ------------  ---------------
     6      0.566053  1 N  s                 25     -0.566053  2 N  s          
     2      0.335565  1 N  s                 10     -0.335885  1 N  s          
    21     -0.335565  2 N  s                 29      0.335885  2 N  s          
     5     -0.214452  1 N  pz                24     -0.214452  2 N  pz         
     1     -0.152342  1 N  s                 20      0.152342  2 N  s          

 Vector    5  Occ=2.000000D+00  E=-4.729958D-01  Symmetry=eu
              MO Center= -1.7D-17, -5.9D-17,  1.4D-16, r^2= 9.0D-01
   Bfn.  Coefficient  Atom+Function         Bfn.  Coefficient  Atom+Function  
  ----- ------------  ---------------      ----- ------------  ---------------
     4      0.402697  1 N  py                23      0.402697  2 N  py         
     3      0.213939  1 N  px                22      0.213939  2 N  px         
     8      0.197505  1 N  py                27      0.197505  2 N  py         

 Vector    6  Occ=2.000000D+00  E=-4.729958D-01  Symmetry=eu
              MO Center=  1.1D-16, -7.6D-17, -9.7D-17, r^2= 9.0D-01
   Bfn.  Coefficient  Atom+Function         Bfn.  Coefficient  Atom+Function  
  ----- ------------  ---------------      ----- ------------  ---------------
     3      0.402697  1 N  px                22      0.402697  2 N  px         
     4     -0.213939  1 N  py                23     -0.213939  2 N  py         
     7      0.197505  1 N  px                26      0.197505  2 N  px         

 Vector    7  Occ=2.000000D+00  E=-4.391533D-01  Symmetry=a1g
              MO Center= -1.2D-18, -3.9D-18,  4.4D-16, r^2= 1.3D+00
   Bfn.  Coefficient  Atom+Function         Bfn.  Coefficient  Atom+Function  
  ----- ------------  ---------------      ----- ------------  ---------------
     5      0.458879  1 N  pz                24     -0.458879  2 N  pz         
     6     -0.271579  1 N  s                 25     -0.271579  2 N  s          
     9      0.176731  1 N  pz                28     -0.176731  2 N  pz         

 Vector    8  Occ=0.000000D+00  E=-4.142806D-02  Symmetry=eg
              MO Center=  3.8D-33, -2.0D-32,  1.1D-16, r^2= 1.7D+00
   Bfn.  Coefficient  Atom+Function         Bfn.  Coefficient  Atom+Function  
  ----- ------------  ---------------      ----- ------------  ---------------
     3      0.480075  1 N  px                22     -0.480075  2 N  px         
     7      0.445386  1 N  px                26     -0.445386  2 N  px         
    11      0.408277  1 N  px                30     -0.408277  2 N  px         

 Vector    9  Occ=0.000000D+00  E=-4.142806D-02  Symmetry=eg
              MO Center= -2.9D-17, -4.1D-18, -1.1D-16, r^2= 1.7D+00
   Bfn.  Coefficient  Atom+Function         Bfn.  Coefficient  Atom+Function  
  ----- ------------  ---------------      ----- ------------  ---------------
     4      0.480075  1 N  py                23     -0.480075  2 N  py         
     8      0.445386  1 N  py                27     -0.445386  2 N  py         
    12      0.408277  1 N  py                31     -0.408277  2 N  py         

 Vector   10  Occ=0.000000D+00  E= 6.375625D-02  Symmetry=a1g
              MO Center= -4.4D-17,  9.3D-17, -6.9D-17, r^2= 6.2D+00
   Bfn.  Coefficient  Atom+Function         Bfn.  Coefficient  Atom+Function  
  ----- ------------  ---------------      ----- ------------  ---------------
    10      0.890471  1 N  s                 29      0.890471  2 N  s          
     6     -0.665706  1 N  s                 25     -0.665706  2 N  s          
    13     -0.311999  1 N  pz                32      0.311999  2 N  pz         
     9      0.187912  1 N  pz                28     -0.187912  2 N  pz         

 Vector   11  Occ=0.000000D+00  E= 7.946128D-02  Symmetry=a2u
              MO Center=  1.7D-19,  8.9D-19, -7.1D-15, r^2= 9.2D+00
   Bfn.  Coefficient  Atom+Function         Bfn.  Coefficient  Atom+Function  
  ----- ------------  ---------------      ----- ------------  ---------------
    10     11.346063  1 N  s                 29    -11.346063  2 N  s          
    13      3.797475  1 N  pz                32      3.797475  2 N  pz         
     9     -0.215518  1 N  pz                28     -0.215518  2 N  pz         

 Vector   12  Occ=0.000000D+00  E= 9.249974D-02  Symmetry=eu
              MO Center=  4.9D-19,  1.3D-17,  1.2D-15, r^2= 6.7D+00
   Bfn.  Coefficient  Atom+Function         Bfn.  Coefficient  Atom+Function  
  ----- ------------  ---------------      ----- ------------  ---------------
    12      0.619745  1 N  py                31      0.619745  2 N  py         
     8     -0.215054  1 N  py                27     -0.215054  2 N  py         

 Vector   13  Occ=0.000000D+00  E= 9.249974D-02  Symmetry=eu
              MO Center=  7.1D-17, -6.3D-19, -1.6D-15, r^2= 6.7D+00
   Bfn.  Coefficient  Atom+Function         Bfn.  Coefficient  Atom+Function  
  ----- ------------  ---------------      ----- ------------  ---------------
    11      0.619745  1 N  px                30      0.619745  2 N  px         
     7     -0.215054  1 N  px                26     -0.215054  2 N  px         

 Vector   14  Occ=0.000000D+00  E= 1.408967D-01  Symmetry=a1g
              MO Center= -1.3D-17,  3.0D-17,  1.1D-15, r^2= 7.5D+00
   Bfn.  Coefficient  Atom+Function         Bfn.  Coefficient  Atom+Function  
  ----- ------------  ---------------      ----- ------------  ---------------
    13      1.531964  1 N  pz                32     -1.531964  2 N  pz         
     6     -0.421524  1 N  s                 25     -0.421524  2 N  s          

 Vector   15  Occ=0.000000D+00  E= 1.736479D-01  Symmetry=eg
              MO Center= -2.6D-17,  8.3D-18, -4.4D-16, r^2= 8.1D+00
   Bfn.  Coefficient  Atom+Function         Bfn.  Coefficient  Atom+Function  
  ----- ------------  ---------------      ----- ------------  ---------------
    12      2.131874  1 N  py                31     -2.131874  2 N  py         
     8     -0.422272  1 N  py                27      0.422272  2 N  py         
    11     -0.314549  1 N  px                30      0.314549  2 N  px         
     4     -0.227315  1 N  py                23      0.227315  2 N  py         

 Vector   16  Occ=0.000000D+00  E= 1.736479D-01  Symmetry=eg
              MO Center= -3.0D-17, -7.1D-18, -4.4D-16, r^2= 8.1D+00
   Bfn.  Coefficient  Atom+Function         Bfn.  Coefficient  Atom+Function  
  ----- ------------  ---------------      ----- ------------  ---------------
    11      2.131874  1 N  px                30     -2.131874  2 N  px         
     7     -0.422272  1 N  px                26      0.422272  2 N  px         
    12      0.314549  1 N  py                31     -0.314549  2 N  py         
     3     -0.227315  1 N  px                22      0.227315  2 N  px         

 Vector   17  Occ=0.000000D+00  E= 2.592951D-01  Symmetry=a2u
              MO Center=  1.0D-17,  1.9D-17, -1.2D-13, r^2= 8.7D+00
   Bfn.  Coefficient  Atom+Function         Bfn.  Coefficient  Atom+Function  
  ----- ------------  ---------------      ----- ------------  ---------------
    10     38.650549  1 N  s                 29    -38.650549  2 N  s          
    13     10.345940  1 N  pz                32     10.345940  2 N  pz         
     6     -0.684418  1 N  s                 25      0.684418  2 N  s          
     9      0.342140  1 N  pz                28      0.342140  2 N  pz         

 Vector   18  Occ=0.000000D+00  E= 5.143445D-01  Symmetry=a2u
              MO Center=  9.1D-19,  4.8D-19, -4.2D-15, r^2= 3.1D+00
   Bfn.  Coefficient  Atom+Function         Bfn.  Coefficient  Atom+Function  
  ----- ------------  ---------------      ----- ------------  ---------------
     6      4.381660  1 N  s                 25     -4.381660  2 N  s          
    10     -3.978579  1 N  s                 29      3.978579  2 N  s          
     9      2.925450  1 N  pz                28      2.925450  2 N  pz         
    13     -1.461914  1 N  pz                32     -1.461914  2 N  pz         
     5      0.309992  1 N  pz                24      0.309992  2 N  pz         


 center of mass
 --------------
 x =   0.00000000 y =   0.00000000 z =   0.00000000

 moments of inertia (a.u.)
 ------------------
          30.539422906325           0.000000000000           0.000000000000
           0.000000000000          30.539422906325           0.000000000000
           0.000000000000           0.000000000000           0.000000000000

     Multipole analysis of the density
     ---------------------------------

     L   x y z        total         alpha         beta         nuclear
     -   - - -        -----         -----         ----         -------
     0   0 0 0     -0.000000     -7.000000     -7.000000     14.000000

     1   1 0 0     -0.000000     -0.000000     -0.000000      0.000000
     1   0 1 0      0.000000      0.000000      0.000000      0.000000
     1   0 0 1     -0.000000     -0.000000     -0.000000      0.000000

     2   2 0 0     -7.707499     -3.853750     -3.853750      0.000000
     2   1 1 0      0.000000      0.000000      0.000000      0.000000
     2   1 0 1      0.000000      0.000000      0.000000      0.000000
     2   0 2 0     -7.707499     -3.853750     -3.853750      0.000000
     2   0 1 1      0.000000      0.000000      0.000000      0.000000
     2   0 0 2     -8.881846    -12.074105    -12.074105     15.266364


 Parallel integral file used       2 records with       0 large values



                            NWChem DFT Gradient Module
                            --------------------------


                                  N2 dft optimize



  charge          =   0.00
  wavefunction    = closed shell

  Using symmetry


                         DFT ENERGY GRADIENTS

    atom               coordinates                        gradient
                 x          y          z           x          y          z
   1 N       0.000000   0.000000  -1.044248    0.000000   0.000000  -0.000190
   2 N       0.000000   0.000000   1.044248    0.000000   0.000000   0.000190

                 ----------------------------------------
                 |  Time  |  1-e(secs)   |  2-e(secs)   |
                 ----------------------------------------
                 |  CPU   |       0.00   |       0.13   |
                 ----------------------------------------
                 |  WALL  |       0.00   |       0.13   |
                 ----------------------------------------

  Step       Energy      Delta E   Gmax     Grms     Xrms     Xmax   Walltime
  ---- ---------------- -------- -------- -------- -------- -------- --------
@    1    -109.52978019 -7.6D-05  0.00019  0.00019  0.00283  0.00490      1.2
                                     ok       ok                    



                                Z-matrix (autoz)
                                -------- 

 Units are Angstrom for bonds and degrees for angles

      Type          Name      I     J     K     L     M      Value     Gradient
      ----------- --------  ----- ----- ----- ----- ----- ---------- ----------
    1 Stretch                  1     2                       1.10518    0.00019


                                 NWChem DFT Module
                                 -----------------


                                  N2 dft optimize


  Caching 1-el integrals 

            General Information
            -------------------
          SCF calculation type: DFT
          Wavefunction type:  closed shell.
          No. of atoms     :     2
          No. of electrons :    14
           Alpha electrons :     7
            Beta electrons :     7
          Charge           :     0
          Spin multiplicity:     1
          Use of symmetry is: on ; symmetry adaption is: on 
          Maximum number of iterations:  30
          AO basis - number of functions:    38
                     number of shells:    16
          Convergence on energy requested: 1.00D-06
          Convergence on density requested: 1.00D-05
          Convergence on gradient requested: 5.00D-04

              XC Information
              --------------
                         B3LYP Method XC Potential
                     Hartree-Fock (Exact) Exchange  0.200          
                        Slater Exchange Functional  0.800 local    
                    Becke 1988 Exchange Functional  0.720 non-local
              Lee-Yang-Parr Correlation Functional  0.810          
                  VWN I RPA Correlation Functional  0.190 local    

             Grid Information
             ----------------
          Grid used for XC integration:  medium    
          Radial quadrature: Mura-Knowles        
          Angular quadrature: Lebedev. 
          Tag              B.-S. Rad. Rad. Pts. Rad. Cut. Ang. Pts.
          ---              ---------- --------- --------- ---------
          N                   0.65       49           8.0       434
          Grid pruning is: on 
          Number of quadrature shells:    49
          Spatial weights used:  Erf1

          Convergence Information
          -----------------------
          Convergence aids based upon iterative change in 
          total energy or number of iterations. 
          Levelshifting, if invoked, occurs when the 
          HOMO/LUMO gap drops below (HL_TOL): 1.00D-02
          DIIS, if invoked, will attempt to extrapolate 
          using up to (NFOCK): 10 stored Fock matrices.

                    Damping( 0%)  Levelshifting(0.5)       DIIS
                  --------------- ------------------- ---------------
          dE  on:    start            ASAP                start   
          dE off:    2 iters         30 iters            30 iters 


      Screening Tolerance Information
      -------------------------------
          Density screening/tol_rho: 1.00D-10
          AO Gaussian exp screening on grid/accAOfunc:  14
          CD Gaussian exp screening on grid/accCDfunc:  20
          XC Gaussian exp screening on grid/accXCfunc:  20
          Schwarz screening/accCoul: 1.00D-08


 Loading old vectors from job with title :

N2 dft optimize


      Symmetry analysis of molecular orbitals - initial
      -------------------------------------------------

  Numbering of irreducible representations: 

     1 a1g         2 a1u         3 a2g         4 a2u         5 b1g     
     6 b1u         7 b2g         8 b2u         9 eg         10 eu      

  Orbital symmetries:

     1 a1g         2 a2u         3 a1g         4 a2u         5 eu      
     6 eu          7 a1g         8 eg          9 eg         10 a1g     
    11 a2u        12 eu         13 eu         14 a1g        15 eg      
    16 eg         17 a2u     

   Time after variat. SCF:      1.1
   Time prior to 1st pass:      1.1

 Integral file          = ./N2.aoints.0
 Record size in doubles =  65536        No. of integs per rec  =  43688
 Max. records in memory =      2        Max. records in file   = 187801
 No. of bits per label  =      8        No. of bits per value  =     64


 #quartets = 6.345D+03 #integrals = 5.603D+04 #direct =  0.0% #cached =100.0%


 Grid_pts file          = ./N2.gridpts.0
 Record size in doubles =  12289        No. of grid_pts per rec  =   3070
 Max. records in memory =      9        Max. recs in file   =   1001528


           Memory utilization after 1st SCF pass: 
           Heap Space remaining (MW):       32.52            32524411
          Stack Space remaining (MW):       32.77            32767697

   convergence    iter        energy       DeltaE   RMS-Dens  Diis-err    time
 ---------------- ----- ----------------- --------- --------- ---------  ------
 d= 0,ls=0.0,diis     1   -109.5297801946 -1.33D+02  7.23D-06  1.91D-08     1.2
 d= 0,ls=0.0,diis     2   -109.5297801969 -2.27D-09  3.73D-06  4.45D-09     1.2


         Total DFT energy =     -109.529780196877
      One electron energy =     -194.034484410135
           Coulomb energy =       74.698553349379
    Exchange-Corr. energy =      -13.657013903996
 Nuclear repulsion energy =       23.463164767874

 Numeric. integr. density =       14.000000054710

     Total iterative time =      0.1s



                  Occupations of the irreducible representations
                  ----------------------------------------------

                     irrep           alpha         beta
                     --------     --------     --------
                     a1g               3.0          3.0
                     a1u               0.0          0.0
                     a2g               0.0          0.0
                     a2u               2.0          2.0
                     b1g               0.0          0.0
                     b1u               0.0          0.0
                     b2g               0.0          0.0
                     b2u               0.0          0.0
                     eg                0.0          0.0
                     eu                2.0          2.0


                       DFT Final Molecular Orbital Analysis
                       ------------------------------------

 Vector    1  Occ=2.000000D+00  E=-1.445961D+01  Symmetry=a1g
              MO Center=  0.0D+00,  0.0D+00,  3.3D-16, r^2= 3.3D-01
   Bfn.  Coefficient  Atom+Function         Bfn.  Coefficient  Atom+Function  
  ----- ------------  ---------------      ----- ------------  ---------------
     1      0.701889  1 N  s                 20      0.701889  2 N  s          

 Vector    2  Occ=2.000000D+00  E=-1.445795D+01  Symmetry=a2u
              MO Center=  1.8D-20, -6.9D-19, -1.1D-16, r^2= 3.3D-01
   Bfn.  Coefficient  Atom+Function         Bfn.  Coefficient  Atom+Function  
  ----- ------------  ---------------      ----- ------------  ---------------
     1      0.702071  1 N  s                 20     -0.702071  2 N  s          

 Vector    3  Occ=2.000000D+00  E=-1.135729D+00  Symmetry=a1g
              MO Center=  7.4D-18,  2.0D-18, -1.9D-16, r^2= 4.4D-01
   Bfn.  Coefficient  Atom+Function         Bfn.  Coefficient  Atom+Function  
  ----- ------------  ---------------      ----- ------------  ---------------
     2      0.336048  1 N  s                 21      0.336048  2 N  s          
     5      0.230218  1 N  pz                24     -0.230218  2 N  pz         
     6      0.214166  1 N  s                 25      0.214166  2 N  s          
     1     -0.161727  1 N  s                 20     -0.161727  2 N  s          

 Vector    4  Occ=2.000000D+00  E=-5.641021D-01  Symmetry=a2u
              MO Center=  5.9D-18,  5.6D-18, -5.3D-16, r^2= 1.3D+00
   Bfn.  Coefficient  Atom+Function         Bfn.  Coefficient  Atom+Function  
  ----- ------------  ---------------      ----- ------------  ---------------
     6      0.566063  1 N  s                 25     -0.566063  2 N  s          
     2      0.335554  1 N  s                 10     -0.335912  1 N  s          
    21     -0.335554  2 N  s                 29      0.335912  2 N  s          
     5     -0.214467  1 N  pz                24     -0.214467  2 N  pz         
     1     -0.152340  1 N  s                 20      0.152340  2 N  s          

 Vector    5  Occ=2.000000D+00  E=-4.730108D-01  Symmetry=eu
              MO Center=  6.7D-17, -4.2D-17, -1.7D-16, r^2= 9.0D-01
   Bfn.  Coefficient  Atom+Function         Bfn.  Coefficient  Atom+Function  
  ----- ------------  ---------------      ----- ------------  ---------------
     4      0.454931  1 N  py                23      0.454931  2 N  py         
     8      0.223112  1 N  py                27      0.223112  2 N  py         

 Vector    6  Occ=2.000000D+00  E=-4.730108D-01  Symmetry=eu
              MO Center=  1.4D-17, -5.5D-18, -3.1D-16, r^2= 9.0D-01
   Bfn.  Coefficient  Atom+Function         Bfn.  Coefficient  Atom+Function  
  ----- ------------  ---------------      ----- ------------  ---------------
     3      0.454931  1 N  px                22      0.454931  2 N  px         
     7      0.223112  1 N  px                26      0.223112  2 N  px         

 Vector    7  Occ=2.000000D+00  E=-4.391533D-01  Symmetry=a1g
              MO Center=  9.7D-20, -1.1D-17,  4.2D-16, r^2= 1.3D+00
   Bfn.  Coefficient  Atom+Function         Bfn.  Coefficient  Atom+Function  
  ----- ------------  ---------------      ----- ------------  ---------------
     5      0.458877  1 N  pz                24     -0.458877  2 N  pz         
     6     -0.271585  1 N  s                 25     -0.271585  2 N  s          
     9      0.176723  1 N  pz                28     -0.176723  2 N  pz         

 Vector    8  Occ=0.000000D+00  E=-4.139793D-02  Symmetry=eg
              MO Center=  1.8D-17,  6.7D-17,  3.3D-16, r^2= 1.7D+00
   Bfn.  Coefficient  Atom+Function         Bfn.  Coefficient  Atom+Function  
  ----- ------------  ---------------      ----- ------------  ---------------
     3      0.460162  1 N  px                22     -0.460162  2 N  px         
     7      0.426943  1 N  px                26     -0.426943  2 N  px         
    11      0.391462  1 N  px                30     -0.391462  2 N  px         
     4      0.163341  1 N  py                23     -0.163341  2 N  py         
     8      0.151549  1 N  py                27     -0.151549  2 N  py         

 Vector    9  Occ=0.000000D+00  E=-4.139793D-02  Symmetry=eg
              MO Center= -2.5D-17,  9.5D-18,  1.0D-15, r^2= 1.7D+00
   Bfn.  Coefficient  Atom+Function         Bfn.  Coefficient  Atom+Function  
  ----- ------------  ---------------      ----- ------------  ---------------
     4      0.460162  1 N  py                23     -0.460162  2 N  py         
     8      0.426943  1 N  py                27     -0.426943  2 N  py         
    12      0.391462  1 N  py                31     -0.391462  2 N  py         
     3     -0.163341  1 N  px                22      0.163341  2 N  px         
     7     -0.151549  1 N  px                26      0.151549  2 N  px         

 Vector   10  Occ=0.000000D+00  E= 6.375858D-02  Symmetry=a1g
              MO Center= -6.8D-18,  2.8D-17, -8.3D-17, r^2= 6.2D+00
   Bfn.  Coefficient  Atom+Function         Bfn.  Coefficient  Atom+Function  
  ----- ------------  ---------------      ----- ------------  ---------------
    10      0.890467  1 N  s                 29      0.890467  2 N  s          
     6     -0.665697  1 N  s                 25     -0.665697  2 N  s          
    13     -0.312044  1 N  pz                32      0.312044  2 N  pz         
     9      0.187924  1 N  pz                28     -0.187924  2 N  pz         

 Vector   11  Occ=0.000000D+00  E= 7.946304D-02  Symmetry=a2u
              MO Center= -2.9D-18, -1.3D-18, -5.9D-14, r^2= 9.2D+00
   Bfn.  Coefficient  Atom+Function         Bfn.  Coefficient  Atom+Function  
  ----- ------------  ---------------      ----- ------------  ---------------
    10     11.348352  1 N  s                 29    -11.348352  2 N  s          
    13      3.797910  1 N  pz                32      3.797910  2 N  pz         
     9     -0.215558  1 N  pz                28     -0.215558  2 N  pz         

 Vector   12  Occ=0.000000D+00  E= 9.249918D-02  Symmetry=eu
              MO Center= -3.3D-17,  6.2D-18,  1.5D-15, r^2= 6.7D+00
   Bfn.  Coefficient  Atom+Function         Bfn.  Coefficient  Atom+Function  
  ----- ------------  ---------------      ----- ------------  ---------------
    11      0.610982  1 N  px                30      0.610982  2 N  px         
     7     -0.212005  1 N  px                26     -0.212005  2 N  px         

 Vector   13  Occ=0.000000D+00  E= 9.249918D-02  Symmetry=eu
              MO Center=  2.6D-17,  1.8D-16,  1.5D-15, r^2= 6.7D+00
   Bfn.  Coefficient  Atom+Function         Bfn.  Coefficient  Atom+Function  
  ----- ------------  ---------------      ----- ------------  ---------------
    12      0.610982  1 N  py                31      0.610982  2 N  py         
     8     -0.212005  1 N  py                27     -0.212005  2 N  py         

 Vector   14  Occ=0.000000D+00  E= 1.408982D-01  Symmetry=a1g
              MO Center= -3.0D-18, -6.1D-18,  7.0D-14, r^2= 7.5D+00
   Bfn.  Coefficient  Atom+Function         Bfn.  Coefficient  Atom+Function  
  ----- ------------  ---------------      ----- ------------  ---------------
    13      1.532029  1 N  pz                32     -1.532029  2 N  pz         
     6     -0.421546  1 N  s                 25     -0.421546  2 N  s          

 Vector   15  Occ=0.000000D+00  E= 1.736537D-01  Symmetry=eg
              MO Center=  9.4D-18,  5.2D-19, -1.6D-15, r^2= 8.1D+00
   Bfn.  Coefficient  Atom+Function         Bfn.  Coefficient  Atom+Function  
  ----- ------------  ---------------      ----- ------------  ---------------
    12      2.152829  1 N  py                31     -2.152829  2 N  py         
     8     -0.426455  1 N  py                27      0.426455  2 N  py         
     4     -0.229561  1 N  py                23      0.229561  2 N  py         

 Vector   16  Occ=0.000000D+00  E= 1.736537D-01  Symmetry=eg
              MO Center=  1.0D-18, -5.1D-18, -1.1D-15, r^2= 8.1D+00
   Bfn.  Coefficient  Atom+Function         Bfn.  Coefficient  Atom+Function  
[...]
           Alpha electrons :     7
            Beta electrons :     7
          Charge           :     0
          Spin multiplicity:     1
          Use of symmetry is: on ; symmetry adaption is: on 
          Maximum number of iterations:  30
          AO basis - number of functions:    38
                     number of shells:    16
          Convergence on energy requested: 1.00D-07
          Convergence on density requested: 1.00D-05
          Convergence on gradient requested: 5.00D-04

              XC Information
              --------------
                         B3LYP Method XC Potential
                     Hartree-Fock (Exact) Exchange  0.200          
                        Slater Exchange Functional  0.800 local    
                    Becke 1988 Exchange Functional  0.720 non-local
              Lee-Yang-Parr Correlation Functional  0.810          
                  VWN I RPA Correlation Functional  0.190 local    

             Grid Information
             ----------------
          Grid used for XC integration:  fine      
          Radial quadrature: Mura-Knowles        
          Angular quadrature: Lebedev. 
          Tag              B.-S. Rad. Rad. Pts. Rad. Cut. Ang. Pts.
          ---              ---------- --------- --------- ---------
          N                   0.65       70           8.0       590
          Grid pruning is: on 
          Number of quadrature shells:    70
          Spatial weights used:  Erf1

          Convergence Information
          -----------------------
          Convergence aids based upon iterative change in 
          total energy or number of iterations. 
          Levelshifting, if invoked, occurs when the 
          HOMO/LUMO gap drops below (HL_TOL): 1.00D-02
          DIIS, if invoked, will attempt to extrapolate 
          using up to (NFOCK): 10 stored Fock matrices.

                    Damping( 0%)  Levelshifting(0.5)       DIIS
                  --------------- ------------------- ---------------
          dE  on:    start            ASAP                start   
          dE off:    2 iters         30 iters            30 iters 


      Screening Tolerance Information
      -------------------------------
          Density screening/tol_rho: 1.00D-11
          AO Gaussian exp screening on grid/accAOfunc:  16
          CD Gaussian exp screening on grid/accCDfunc:  20
          XC Gaussian exp screening on grid/accXCfunc:  20
          Schwarz screening/accCoul: 1.00D-08


 Loading old vectors from job with title :

N2 dft freq


      Symmetry analysis of molecular orbitals - initial
      -------------------------------------------------

  Numbering of irreducible representations: 

     1 a1g         2 a1u         3 a2g         4 a2u         5 b1g     
     6 b1u         7 b2g         8 b2u         9 eg         10 eu      

  Orbital symmetries:

     1 a1g         2 a2u         3 a1g         4 a2u         5 eu      
     6 eu          7 a1g         8 eg          9 eg         10 a1g     
    11 a2u        12 eu         13 eu         14 a1g        15 eg      
    16 eg         17 a2u     

   Time after variat. SCF:     10.9
   Time prior to 1st pass:     10.9

 Integral file          = ./N2.aoints.0
 Record size in doubles =  65536        No. of integs per rec  =  43688
 Max. records in memory =      2        Max. records in file   = 187799
 No. of bits per label  =      8        No. of bits per value  =     64


 #quartets = 6.345D+03 #integrals = 5.603D+04 #direct =  0.0% #cached =100.0%


 Grid_pts file          = ./N2.gridpts.0
 Record size in doubles =  12289        No. of grid_pts per rec  =   3070
 Max. records in memory =     16        Max. recs in file   =   1001517


           Memory utilization after 1st SCF pass: 
           Heap Space remaining (MW):       32.44            32438384
          Stack Space remaining (MW):       32.77            32767697

   convergence    iter        energy       DeltaE   RMS-Dens  Diis-err    time
 ---------------- ----- ----------------- --------- --------- ---------  ------
 d= 0,ls=0.0,diis     1   -109.5297804236 -1.33D+02  6.93D-07  1.08D-13    11.1
 d= 0,ls=0.0,diis     2   -109.5297803382  8.54D-08  3.43D-07  9.38D-14    11.2


         Total DFT energy =     -109.529780338163
      One electron energy =     -194.034298928078
           Coulomb energy =       74.698342819091
    Exchange-Corr. energy =      -13.656988997051
 Nuclear repulsion energy =       23.463164767874

 Numeric. integr. density =       13.999999995127

     Total iterative time =      0.3s



                  Occupations of the irreducible representations
                  ----------------------------------------------

                     irrep           alpha         beta
                     --------     --------     --------
                     a1g               3.0          3.0
                     a1u               0.0          0.0
                     a2g               0.0          0.0
                     a2u               2.0          2.0
                     b1g               0.0          0.0
                     b1u               0.0          0.0
                     b2g               0.0          0.0
                     b2u               0.0          0.0
                     eg                0.0          0.0
                     eu                2.0          2.0


                       DFT Final Molecular Orbital Analysis
                       ------------------------------------

 Vector    1  Occ=2.000000D+00  E=-1.445961D+01  Symmetry=a1g
              MO Center=  2.3D-18, -5.6D-20, -5.9D-13, r^2= 3.3D-01
   Bfn.  Coefficient  Atom+Function         Bfn.  Coefficient  Atom+Function  
  ----- ------------  ---------------      ----- ------------  ---------------
     1      0.701889  1 N  s                 20      0.701889  2 N  s          

 Vector    2  Occ=2.000000D+00  E=-1.445796D+01  Symmetry=a2u
              MO Center=  5.7D-33, -9.9D-33,  5.9D-13, r^2= 3.3D-01
   Bfn.  Coefficient  Atom+Function         Bfn.  Coefficient  Atom+Function  
  ----- ------------  ---------------      ----- ------------  ---------------
     1      0.702071  1 N  s                 20     -0.702071  2 N  s          

 Vector    3  Occ=2.000000D+00  E=-1.135734D+00  Symmetry=a1g
              MO Center=  3.6D-20,  3.1D-20,  2.8D-17, r^2= 4.4D-01
   Bfn.  Coefficient  Atom+Function         Bfn.  Coefficient  Atom+Function  
  ----- ------------  ---------------      ----- ------------  ---------------
     2      0.336048  1 N  s                 21      0.336048  2 N  s          
     5      0.230218  1 N  pz                24     -0.230218  2 N  pz         
     6      0.214165  1 N  s                 25      0.214165  2 N  s          
     1     -0.161727  1 N  s                 20     -0.161727  2 N  s          

 Vector    4  Occ=2.000000D+00  E=-5.641051D-01  Symmetry=a2u
              MO Center=  2.4D-18, -4.6D-18, -7.8D-16, r^2= 1.3D+00
   Bfn.  Coefficient  Atom+Function         Bfn.  Coefficient  Atom+Function  
  ----- ------------  ---------------      ----- ------------  ---------------
     6      0.566063  1 N  s                 25     -0.566063  2 N  s          
     2      0.335554  1 N  s                 10     -0.335920  1 N  s          
    21     -0.335554  2 N  s                 29      0.335920  2 N  s          
     5     -0.214467  1 N  pz                24     -0.214467  2 N  pz         
     1     -0.152340  1 N  s                 20      0.152340  2 N  s          

 Vector    5  Occ=2.000000D+00  E=-4.730145D-01  Symmetry=eu
              MO Center= -2.0D-16, -8.7D-17,  6.9D-18, r^2= 9.0D-01
   Bfn.  Coefficient  Atom+Function         Bfn.  Coefficient  Atom+Function  
  ----- ------------  ---------------      ----- ------------  ---------------
     3      0.362400  1 N  px                22      0.362400  2 N  px         
     4      0.276775  1 N  py                23      0.276775  2 N  py         
     7      0.177731  1 N  px                26      0.177731  2 N  px         

 Vector    6  Occ=2.000000D+00  E=-4.730145D-01  Symmetry=eu
              MO Center=  2.3D-26, -3.0D-26,  6.9D-18, r^2= 9.0D-01
   Bfn.  Coefficient  Atom+Function         Bfn.  Coefficient  Atom+Function  
  ----- ------------  ---------------      ----- ------------  ---------------
     4      0.362400  1 N  py                23      0.362400  2 N  py         
     3     -0.276775  1 N  px                22     -0.276775  2 N  px         
     8      0.177731  1 N  py                27      0.177731  2 N  py         

 Vector    7  Occ=2.000000D+00  E=-4.391566D-01  Symmetry=a1g
              MO Center= -2.9D-19, -2.2D-19,  3.6D-16, r^2= 1.3D+00
   Bfn.  Coefficient  Atom+Function         Bfn.  Coefficient  Atom+Function  
  ----- ------------  ---------------      ----- ------------  ---------------
     5      0.458877  1 N  pz                24     -0.458877  2 N  pz         
     6     -0.271586  1 N  s                 25     -0.271586  2 N  s          
     9      0.176722  1 N  pz                28     -0.176722  2 N  pz         

 Vector    8  Occ=0.000000D+00  E=-4.140099D-02  Symmetry=eg
              MO Center= -1.5D-26, -2.2D-25, -2.2D-16, r^2= 1.7D+00
   Bfn.  Coefficient  Atom+Function         Bfn.  Coefficient  Atom+Function  
  ----- ------------  ---------------      ----- ------------  ---------------
     4      0.487138  1 N  py                23     -0.487138  2 N  py         
     8      0.451969  1 N  py                27     -0.451969  2 N  py         
    12      0.414399  1 N  py                31     -0.414399  2 N  py         

 Vector    9  Occ=0.000000D+00  E=-4.140099D-02  Symmetry=eg
              MO Center= -2.9D-19,  1.0D-17, -3.3D-16, r^2= 1.7D+00
   Bfn.  Coefficient  Atom+Function         Bfn.  Coefficient  Atom+Function  
  ----- ------------  ---------------      ----- ------------  ---------------
     3      0.487138  1 N  px                22     -0.487138  2 N  px         
     7      0.451969  1 N  px                26     -0.451969  2 N  px         
    11      0.414399  1 N  px                30     -0.414399  2 N  px         

 Vector   10  Occ=0.000000D+00  E= 6.375777D-02  Symmetry=a1g
              MO Center=  1.1D-17,  8.1D-18, -1.4D-17, r^2= 6.2D+00
   Bfn.  Coefficient  Atom+Function         Bfn.  Coefficient  Atom+Function  
  ----- ------------  ---------------      ----- ------------  ---------------
    10      0.890467  1 N  s                 29      0.890467  2 N  s          
     6     -0.665697  1 N  s                 25     -0.665697  2 N  s          
    13     -0.312040  1 N  pz                32      0.312040  2 N  pz         
     9      0.187923  1 N  pz                28     -0.187923  2 N  pz         

 Vector   11  Occ=0.000000D+00  E= 7.946291D-02  Symmetry=a2u
              MO Center= -1.7D-18,  1.2D-18, -2.5D-14, r^2= 9.2D+00
   Bfn.  Coefficient  Atom+Function         Bfn.  Coefficient  Atom+Function  
  ----- ------------  ---------------      ----- ------------  ---------------
    10     11.348037  1 N  s                 29    -11.348037  2 N  s          
    13      3.797826  1 N  pz                32      3.797826  2 N  pz         
     9     -0.215562  1 N  pz                28     -0.215562  2 N  pz         

 Vector   12  Occ=0.000000D+00  E= 9.249821D-02  Symmetry=eu
              MO Center=  7.5D-18, -9.0D-18,  8.2D-16, r^2= 6.7D+00
   Bfn.  Coefficient  Atom+Function         Bfn.  Coefficient  Atom+Function  
  ----- ------------  ---------------      ----- ------------  ---------------
    12      0.566145  1 N  py                31      0.566145  2 N  py         
    11     -0.252804  1 N  px                30     -0.252804  2 N  px         
     8     -0.196446  1 N  py                27     -0.196446  2 N  py         

 Vector   13  Occ=0.000000D+00  E= 9.249821D-02  Symmetry=eu
              MO Center= -5.4D-28, -2.4D-28,  6.9D-17, r^2= 6.7D+00
   Bfn.  Coefficient  Atom+Function         Bfn.  Coefficient  Atom+Function  
  ----- ------------  ---------------      ----- ------------  ---------------
    11      0.566145  1 N  px                30      0.566145  2 N  px         
    12      0.252804  1 N  py                31      0.252804  2 N  py         
     7     -0.196446  1 N  px                26     -0.196446  2 N  px         

 Vector   14  Occ=0.000000D+00  E= 1.408974D-01  Symmetry=a1g
              MO Center=  4.7D-17,  3.7D-17,  6.2D-14, r^2= 7.5D+00
   Bfn.  Coefficient  Atom+Function         Bfn.  Coefficient  Atom+Function  
  ----- ------------  ---------------      ----- ------------  ---------------
    13      1.532030  1 N  pz                32     -1.532030  2 N  pz         
     6     -0.421544  1 N  s                 25     -0.421544  2 N  s          

 Vector   15  Occ=0.000000D+00  E= 1.736525D-01  Symmetry=eg
              MO Center= -9.7D-18, -4.2D-19, -8.9D-16, r^2= 8.1D+00
   Bfn.  Coefficient  Atom+Function         Bfn.  Coefficient  Atom+Function  
  ----- ------------  ---------------      ----- ------------  ---------------
    12      2.141593  1 N  py                31     -2.141593  2 N  py         
     8     -0.424226  1 N  py                27      0.424226  2 N  py         
    11     -0.240479  1 N  px                30      0.240479  2 N  px         
     4     -0.228361  1 N  py                23      0.228361  2 N  py         

 Vector   16  Occ=0.000000D+00  E= 1.736525D-01  Symmetry=eg
              MO Center=  4.6D-19,  1.3D-20, -1.3D-15, r^2= 8.1D+00
   Bfn.  Coefficient  Atom+Function         Bfn.  Coefficient  Atom+Function  
  ----- ------------  ---------------      ----- ------------  ---------------
    11      2.141593  1 N  px                30     -2.141593  2 N  px         
     7     -0.424226  1 N  px                26      0.424226  2 N  px         
    12      0.240479  1 N  py                31     -0.240479  2 N  py         
     3     -0.228361  1 N  px                22      0.228361  2 N  px         

 Vector   17  Occ=0.000000D+00  E= 2.593015D-01  Symmetry=a2u
              MO Center= -1.5D-17,  1.4D-17, -3.6D-14, r^2= 8.7D+00
   Bfn.  Coefficient  Atom+Function         Bfn.  Coefficient  Atom+Function  
  ----- ------------  ---------------      ----- ------------  ---------------
    10     38.656963  1 N  s                 29    -38.656963  2 N  s          
    13     10.347076  1 N  pz                32     10.347076  2 N  pz         
     6     -0.684356  1 N  s                 25      0.684356  2 N  s          
     9      0.342164  1 N  pz                28      0.342164  2 N  pz         

 Vector   18  Occ=0.000000D+00  E= 5.143987D-01  Symmetry=a2u
              MO Center=  1.0D-16, -1.6D-17, -8.0D-15, r^2= 3.1D+00
   Bfn.  Coefficient  Atom+Function         Bfn.  Coefficient  Atom+Function  
  ----- ------------  ---------------      ----- ------------  ---------------
     6      4.382932  1 N  s                 25     -4.382932  2 N  s          
    10     -3.978280  1 N  s                 29      3.978280  2 N  s          
     9      2.926093  1 N  pz                28      2.926093  2 N  pz         
    13     -1.461810  1 N  pz                32     -1.461810  2 N  pz         
     5      0.309883  1 N  pz                24      0.309883  2 N  pz         


 center of mass
 --------------
 x =   0.00000000 y =   0.00000000 z =   0.00000000

 moments of inertia (a.u.)
 ------------------
          30.536006781172           0.000000000000           0.000000000000
           0.000000000000          30.536006781172           0.000000000000
           0.000000000000           0.000000000000           0.000000000000

     Multipole analysis of the density
     ---------------------------------

     L   x y z        total         alpha         beta         nuclear
     -   - - -        -----         -----         ----         -------
     0   0 0 0     -0.000000     -7.000000     -7.000000     14.000000

     1   1 0 0      0.000000      0.000000      0.000000      0.000000
     1   0 1 0      0.000000      0.000000      0.000000      0.000000
     1   0 0 1      0.000000      0.000000      0.000000      0.000000

     2   2 0 0     -7.707351     -3.853675     -3.853675      0.000000
     2   1 1 0      0.000000      0.000000      0.000000      0.000000
     2   1 0 1      0.000000      0.000000      0.000000      0.000000
     2   0 2 0     -7.707351     -3.853675     -3.853675      0.000000
     2   0 1 1      0.000000      0.000000      0.000000      0.000000
     2   0 0 2     -8.881815    -12.073235    -12.073235     15.264656


 Parallel integral file used       2 records with       0 large values


 Task  times  cpu:        0.3s     wall:        0.4s
 Summary of allocated global arrays
-----------------------------------
  No active global arrays



                         GA Statistics for process    0
                         ------------------------------

       create   destroy   get      put      acc     scatter   gather  read&inc
calls: 1173     1173     9.25e+04 2.52e+04 4.49e+04  182        0     1680     
number of processes/call 1.00e+00 1.00e+00 1.00e+00 1.00e+00 0.00e+00
bytes total:             9.97e+07 1.47e+07 8.30e+07 1.87e+06 0.00e+00 1.34e+04
bytes remote:            0.00e+00 0.00e+00 0.00e+00 0.00e+00 0.00e+00 0.00e+00
Max memory consumed for GA by this process: 723616 bytes
MA_summarize_allocated_blocks: starting scan ...
MA_summarize_allocated_blocks: scan completed: 0 heap blocks, 0 stack blocks
MA usage statistics:

	allocation statistics:
					      heap	     stack
					      ----	     -----
	current number of blocks	         0	         0
	maximum number of blocks	        26	        52
	current total bytes		         0	         0
	maximum total bytes		   8305456	  82741792
	maximum total K-bytes		      8306	     82742
	maximum total M-bytes		         9	        83


                                NWChem Input Module
                                -------------------





                                     CITATION
                                     --------
                Please cite the following reference when publishing
                           results obtained with NWChem:

                 M. Valiev, E.J. Bylaska, N. Govind, K. Kowalski,
              T.P. Straatsma, H.J.J. van Dam, D. Wang, J. Nieplocha,
                        E. Apra, T.L. Windus, W.A. de Jong
                 "NWChem: a comprehensive and scalable open-source
                  solution for large scale molecular simulations"
                      Comput. Phys. Commun. 181, 1477 (2010)
                           doi:10.1016/j.cpc.2010.04.018

                              AUTHORS & CONTRIBUTORS
                              ----------------------
          E. Apra, E. J. Bylaska, W. A. de Jong, N. Govind, K. Kowalski,
       T. P. Straatsma, M. Valiev, H. J. J. van Dam, D. Wang, T. L. Windus,
        J. Hammond, J. Autschbach, K. Bhaskaran-Nair, J. Brabec, K. Lopata,
     F. Aquino, S. Hirata, M. T. Hackler, J. Mullin, P. Nichols, R. Peverati,
    J. Pittner, Y. Zhao, P.-D. Fan, R. J. Harrison, M. Dupuis, D. Silverstein,
    D. M. A. Smith, J. Nieplocha, V. Tipparaju, M. Krishnan, B. E. Van Kuiken,
        A. Vazquez-Mayagoitia, L. Jensen, M. Swart, Q. Wu, T. Van Voorhis,
     A. A. Auer, M. Nooijen, L. D. Crosby, E. Brown, G. Cisneros, G. I. Fann,
     H. Fruchtl, J. Garza, K. Hirao, R. Kendall, J. A. Nichols, K. Tsemekhman,
      K. Wolinski, J. Anchell, D. Bernholdt, P. Borowski, T. Clark, D. Clerc,
      H. Dachsel, M. Deegan, K. Dyall, D. Elwood, E. Glendening, M. Gutowski,
      A. Hess, J. Jaffe, B. Johnson, J. Ju, R. Kobayashi, R. Kutteh, Z. Lin,
   R. Littlefield, X. Long, B. Meng, T. Nakajima, S. Niu, L. Pollack, M. Rosing,
   K. Glaesemann, G. Sandrone, M. Stave, H. Taylor, G. Thomas, J. H. van Lenthe,
                                A. Wong, Z. Zhang.

 Total times  cpu:       11.2s     wall:       11.8s
