 argument  1 = N2.nw
                                         
                                         


              Northwest Computational Chemistry Package (NWChem) 6.3
              ------------------------------------------------------


                    Environmental Molecular Sciences Laboratory
                       Pacific Northwest National Laboratory
                                Richland, WA 99352

                              Copyright (c) 1994-2012
                       Pacific Northwest National Laboratory
                            Battelle Memorial Institute

             NWChem is an open-source computational chemistry package
                        distributed under the terms of the
                      Educational Community License (ECL) 2.0
             A copy of the license is included with this distribution
                              in the LICENSE.TXT file

                                  ACKNOWLEDGMENT
                                  --------------

            This software and its documentation were developed at the
            EMSL at Pacific Northwest National Laboratory, a multiprogram
            national laboratory, operated for the U.S. Department of Energy
            by Battelle under Contract Number DE-AC05-76RL01830. Support
            for this work was provided by the Department of Energy Office
            of Biological and Environmental Research, Office of Basic
            Energy Sciences, and the Office of Advanced Scientific Computing.


           Job information
           ---------------

    hostname        = ChensPro.local
    program         = nwchem
    date            = Wed Apr 15 10:33:53 2015

    compiled        = Sat_Jul_20_13:52:43_2013
    source          = /Users/shyuepingong/Software/nwchem-6.3
    nwchem branch   = 6.3
    nwchem revision = 24277
    ga revision     = 10379
    input           = N2.nw
    prefix          = N2.
    data base       = ./N2.db
    status          = startup
    nproc           =        1
    time left       =     -1s



           Memory information
           ------------------

    heap     =   32768001 doubles =    250.0 Mbytes
    stack    =   32768001 doubles =    250.0 Mbytes
    global   =   65536000 doubles =    500.0 Mbytes (distinct from heap & stack)
    total    =  131072002 doubles =   1000.0 Mbytes
    verify   = yes
    hardfail = no 


           Directory information
           ---------------------

  0 permanent = .
  0 scratch   = .




                                NWChem Input Module
                                -------------------



 Scaling coordinates for geometry "geometry" by  1.889725989
 (inverse scale =  0.529177249)

 ORDER OF PRIMARY AXIS IS BEING SET TO 4
 D4H symmetry detected

          ------
          auto-z
          ------


                             Geometry "geometry" -> ""
                             -------------------------

 Output coordinates in angstroms (scale by  1.889725989 to convert to a.u.)

  No.       Tag          Charge          X              Y              Z
 ---- ---------------- ---------- -------------- -------------- --------------
    1 N                    7.0000     0.00000000     0.00000000    -0.55000000
    2 N                    7.0000     0.00000000     0.00000000     0.55000000

      Atomic Mass 
      ----------- 

      N                 14.003070


 Effective nuclear repulsion energy (a.u.)      23.5724410918

            Nuclear Dipole moment (a.u.) 
            ----------------------------
        X                 Y               Z
 ---------------- ---------------- ----------------
     0.0000000000     0.0000000000     0.0000000000

      Symmetry information
      --------------------

 Group name             D4h       
 Group number             28
 Group order              16
 No. of unique centers     1

      Symmetry unique atoms

     1



                                Z-matrix (autoz)
                                -------- 

 Units are Angstrom for bonds and degrees for angles

      Type          Name      I     J     K     L     M      Value
      ----------- --------  ----- ----- ----- ----- ----- ----------
    1 Stretch                  1     2                       1.10000


            XYZ format geometry
            -------------------
     2
 geometry
 N                     0.00000000     0.00000000    -0.55000000
 N                     0.00000000     0.00000000     0.55000000

 ==============================================================================
                                internuclear distances
 ------------------------------------------------------------------------------
       center one      |      center two      | atomic units |  angstroms
 ------------------------------------------------------------------------------
    2 N                |   1 N                |     2.07870  |     1.10000
 ------------------------------------------------------------------------------
                         number of included internuclear distances:          1
 ==============================================================================



                                  N2 dft optimize
                                  ---------------
  library name resolved from: environment
  library file name is: </Users/chenzheng/Google Drive/nano266/resources/nwchem_basis/>
  
                      Basis "ao basis" -> "" (cartesian)
                      -----
  N (Nitrogen)
  ------------
            Exponent  Coefficients 
       -------------- ---------------------------------------------------------
  1 S  4.17351100E+03  0.001835
  1 S  6.27457900E+02  0.013995
  1 S  1.42902100E+02  0.068587
  1 S  4.02343300E+01  0.232241
  1 S  1.28202100E+01  0.469070
  1 S  4.39043700E+00  0.360455

  2 S  1.16263580E+01 -0.114961
  2 S  2.71628000E+00 -0.169118
  2 S  7.72218000E-01  1.145852

  3 P  1.16263580E+01  0.067580
  3 P  2.71628000E+00  0.323907
  3 P  7.72218000E-01  0.740895

  4 S  2.12031300E-01  1.000000

  5 P  2.12031300E-01  1.000000

  6 S  6.39000000E-02  1.000000

  7 P  6.39000000E-02  1.000000

  8 D  8.00000000E-01  1.000000



 Summary of "ao basis" -> "" (cartesian)
 ------------------------------------------------------------------------------
       Tag                 Description            Shells   Functions and Types
 ---------------- ------------------------------  ------  ---------------------
 N                          6-31+G*                  8       19   4s3p1d




                           NWChem Geometry Optimization
                           ----------------------------




                                  N2 dft optimize


 maximum gradient threshold         (gmax) =   0.000450
 rms gradient threshold             (grms) =   0.000300
 maximum cartesian step threshold   (xmax) =   0.001800
 rms cartesian step threshold       (xrms) =   0.001200
 fixed trust radius                (trust) =   0.300000
 maximum step size to saddle      (sadstp) =   0.100000
 energy precision                  (eprec) =   5.0D-06
 maximum number of steps          (nptopt) =   20
 initial hessian option           (inhess) =    0
 line search option               (linopt) =    1
 hessian update option            (modupd) =    1
 saddle point option              (modsad) =    0
 initial eigen-mode to follow     (moddir) =    0
 initial variable to follow       (vardir) =    0
 follow first negative mode     (firstneg) =    T
 apply conjugacy                    (opcg) =    F
 source of zmatrix                         =   autoz   


          -------------------
          Energy Minimization
          -------------------


 Names of Z-matrix variables 
    1         

 Variables with the same non-blank name are constrained to be equal


 Using diagonal initial Hessian 
 Scaling for Hessian diagonals: bonds = 1.00  angles = 0.25  torsions = 0.10

          --------
          Step   0
          --------


                         Geometry "geometry" -> "geometry"
                         ---------------------------------

 Output coordinates in angstroms (scale by  1.889725989 to convert to a.u.)

  No.       Tag          Charge          X              Y              Z
 ---- ---------------- ---------- -------------- -------------- --------------
    1 N                    7.0000     0.00000000     0.00000000    -0.55000000
    2 N                    7.0000     0.00000000     0.00000000     0.55000000

      Atomic Mass 
      ----------- 

      N                 14.003070


 Effective nuclear repulsion energy (a.u.)      23.5724410918

            Nuclear Dipole moment (a.u.) 
            ----------------------------
        X                 Y               Z
 ---------------- ---------------- ----------------
     0.0000000000     0.0000000000     0.0000000000

      Symmetry information
      --------------------

 Group name             D4h       
 Group number             28
 Group order              16
 No. of unique centers     1

      Symmetry unique atoms

     1


                                 NWChem DFT Module
                                 -----------------


                                  N2 dft optimize


  Caching 1-el integrals 

            General Information
            -------------------
          SCF calculation type: DFT
          Wavefunction type:  closed shell.
          No. of atoms     :     2
          No. of electrons :    14
           Alpha electrons :     7
            Beta electrons :     7
          Charge           :     0
          Spin multiplicity:     1
          Use of symmetry is: on ; symmetry adaption is: on 
          Maximum number of iterations:  30
          AO basis - number of functions:    38
                     number of shells:    16
          Convergence on energy requested: 1.00D-06
          Convergence on density requested: 1.00D-05
          Convergence on gradient requested: 5.00D-04

              XC Information
              --------------
          PerdewBurkeErnzerhof Exchange Functional  1.000          

             Grid Information
             ----------------
          Grid used for XC integration:  medium    
          Radial quadrature: Mura-Knowles        
          Angular quadrature: Lebedev. 
          Tag              B.-S. Rad. Rad. Pts. Rad. Cut. Ang. Pts.
          ---              ---------- --------- --------- ---------
          N                   0.65       49           8.0       434
          Grid pruning is: on 
          Number of quadrature shells:    49
          Spatial weights used:  Erf1

          Convergence Information
          -----------------------
          Convergence aids based upon iterative change in 
          total energy or number of iterations. 
          Levelshifting, if invoked, occurs when the 
          HOMO/LUMO gap drops below (HL_TOL): 1.00D-02
          DIIS, if invoked, will attempt to extrapolate 
          using up to (NFOCK): 10 stored Fock matrices.

                    Damping( 0%)  Levelshifting(0.5)       DIIS
                  --------------- ------------------- ---------------
          dE  on:    start            ASAP                start   
          dE off:    2 iters         30 iters            30 iters 


      Screening Tolerance Information
      -------------------------------
          Density screening/tol_rho: 1.00D-10
          AO Gaussian exp screening on grid/accAOfunc:  14
          CD Gaussian exp screening on grid/accCDfunc:  20
          XC Gaussian exp screening on grid/accXCfunc:  20
          Schwarz screening/accCoul: 1.00D-08


      Superposition of Atomic Density Guess
      -------------------------------------

 Sum of atomic energies:        -108.59128415

      Non-variational initial energy
      ------------------------------

 Total energy =    -109.086212
 1-e energy   =    -193.626428
 2-e energy   =      60.967775
 HOMO         =      -0.432196
 LUMO         =       0.010758


      Symmetry analysis of molecular orbitals - initial
      -------------------------------------------------


 !! scf_movecs_sym_adapt:    4 vectors were symmetry contaminated

  Symmetry fudging

 !! scf_movecs_sym_adapt:    4 vectors were symmetry contaminated

  Numbering of irreducible representations: 

     1 a1g         2 a1u         3 a2g         4 a2u         5 b1g     
     6 b1u         7 b2g         8 b2u         9 eg         10 eu      

  Orbital symmetries:

     1 a1g         2 a2u         3 a1g         4 a2u         5 eu      
     6 eu          7 a1g         8 eg          9 eg         10 a2u     
    11 a1g        12 eu         13 eu         14 a1g        15 eg      
    16 eg         17 a2u     

   Time after variat. SCF:      0.1
   Time prior to 1st pass:      0.1

 Integral file          = ./N2.aoints.0
 Record size in doubles =  65536        No. of integs per rec  =  43688
 Max. records in memory =      2        Max. records in file   = 185701
 No. of bits per label  =      8        No. of bits per value  =     64


 #quartets = 6.345D+03 #integrals = 5.603D+04 #direct =  0.0% #cached =100.0%


 Grid_pts file          = ./N2.gridpts.0
 Record size in doubles =  12289        No. of grid_pts per rec  =   3070
 Max. records in memory =      9        Max. recs in file   =    990331


           Memory utilization after 1st SCF pass: 
           Heap Space remaining (MW):       32.52            32524411
          Stack Space remaining (MW):       32.77            32767697

   convergence    iter        energy       DeltaE   RMS-Dens  Diis-err    time
 ---------------- ----- ----------------- --------- --------- ---------  ------
 d= 0,ls=0.0,diis     1   -108.9388645026 -1.33D+02  1.31D-02  2.80D-01     0.2
 d= 0,ls=0.0,diis     2   -108.9529096332 -1.40D-02  1.43D-02  4.84D-02     0.2
 d= 0,ls=0.0,diis     3   -108.9573568552 -4.45D-03  5.76D-03  1.18D-02     0.3
 d= 0,ls=0.0,diis     4   -108.9588702910 -1.51D-03  2.53D-04  1.31D-05     0.3
 d= 0,ls=0.0,diis     5   -108.9588720015 -1.71D-06  1.12D-05  1.33D-07     0.3
 d= 0,ls=0.0,diis     6   -108.9588720167 -1.52D-08  1.90D-06  6.27D-10     0.3


         Total DFT energy =     -108.958872016689
      One electron energy =     -194.097235656730
           Coulomb energy =       74.637206458979
    Exchange-Corr. energy =      -13.071283910743
 Nuclear repulsion energy =       23.572441091805

 Numeric. integr. density =       13.999999991828

     Total iterative time =      0.2s



                  Occupations of the irreducible representations
                  ----------------------------------------------

                     irrep           alpha         beta
                     --------     --------     --------
                     a1g               3.0          3.0
                     a1u               0.0          0.0
                     a2g               0.0          0.0
                     a2u               2.0          2.0
                     b1g               0.0          0.0
                     b1u               0.0          0.0
                     b2g               0.0          0.0
                     b2u               0.0          0.0
                     eg                0.0          0.0
                     eu                2.0          2.0


                       DFT Final Molecular Orbital Analysis
                       ------------------------------------

 Vector    1  Occ=2.000000D+00  E=-1.409860D+01  Symmetry=a1g
              MO Center=  6.8D-19,  1.1D-18,  1.3D-12, r^2= 3.2D-01
   Bfn.  Coefficient  Atom+Function         Bfn.  Coefficient  Atom+Function  
  ----- ------------  ---------------      ----- ------------  ---------------
     1      0.701582  1 N  s                 20      0.701582  2 N  s          

 Vector    2  Occ=2.000000D+00  E=-1.409732D+01  Symmetry=a2u
              MO Center=  5.3D-19,  6.4D-19, -1.3D-12, r^2= 3.2D-01
   Bfn.  Coefficient  Atom+Function         Bfn.  Coefficient  Atom+Function  
  ----- ------------  ---------------      ----- ------------  ---------------
     1      0.701699  1 N  s                 20     -0.701699  2 N  s          

 Vector    3  Occ=2.000000D+00  E=-1.004683D+00  Symmetry=a1g
              MO Center= -3.5D-34, -5.7D-34,  2.8D-17, r^2= 4.3D-01
   Bfn.  Coefficient  Atom+Function         Bfn.  Coefficient  Atom+Function  
  ----- ------------  ---------------      ----- ------------  ---------------
     2      0.335589  1 N  s                 21      0.335589  2 N  s          
     5      0.233316  1 N  pz                24     -0.233316  2 N  pz         
     6      0.214100  1 N  s                 25      0.214100  2 N  s          
     1     -0.162307  1 N  s                 20     -0.162307  2 N  s          

 Vector    4  Occ=2.000000D+00  E=-4.620767D-01  Symmetry=a2u
              MO Center= -7.2D-34, -4.3D-34,  1.1D-16, r^2= 1.3D+00
   Bfn.  Coefficient  Atom+Function         Bfn.  Coefficient  Atom+Function  
  ----- ------------  ---------------      ----- ------------  ---------------
     6      0.574795  1 N  s                 25     -0.574795  2 N  s          
     2      0.334078  1 N  s                 21     -0.334078  2 N  s          
    10     -0.286574  1 N  s                 29      0.286574  2 N  s          
     5     -0.213084  1 N  pz                24     -0.213084  2 N  pz         
     1     -0.152849  1 N  s                 20      0.152849  2 N  s          

 Vector    5  Occ=2.000000D+00  E=-3.905804D-01  Symmetry=eu
              MO Center= -3.0D-18,  2.7D-17,  8.0D-16, r^2= 9.1D-01
   Bfn.  Coefficient  Atom+Function         Bfn.  Coefficient  Atom+Function  
  ----- ------------  ---------------      ----- ------------  ---------------
     4      0.436651  1 N  py                23      0.436651  2 N  py         
     8      0.205888  1 N  py                27      0.205888  2 N  py         

 Vector    6  Occ=2.000000D+00  E=-3.905804D-01  Symmetry=eu
              MO Center=  8.4D-26,  2.7D-26, -2.8D-17, r^2= 9.1D-01
   Bfn.  Coefficient  Atom+Function         Bfn.  Coefficient  Atom+Function  
  ----- ------------  ---------------      ----- ------------  ---------------
     3      0.436651  1 N  px                22      0.436651  2 N  px         
     7      0.205888  1 N  px                26      0.205888  2 N  px         

 Vector    7  Occ=2.000000D+00  E=-3.446341D-01  Symmetry=a1g
              MO Center= -3.9D-20,  1.2D-19,  5.6D-17, r^2= 1.4D+00
   Bfn.  Coefficient  Atom+Function         Bfn.  Coefficient  Atom+Function  
  ----- ------------  ---------------      ----- ------------  ---------------
     5      0.456033  1 N  pz                24     -0.456033  2 N  pz         
     6     -0.260448  1 N  s                 25     -0.260448  2 N  s          
     9      0.171785  1 N  pz                28     -0.171785  2 N  pz         

 Vector    8  Occ=0.000000D+00  E=-4.175441D-02  Symmetry=eg
              MO Center= -8.9D-21, -1.2D-17, -1.1D-16, r^2= 1.7D+00
   Bfn.  Coefficient  Atom+Function         Bfn.  Coefficient  Atom+Function  
  ----- ------------  ---------------      ----- ------------  ---------------
     3      0.500145  1 N  px                22     -0.500145  2 N  px         
     7      0.435978  1 N  px                26     -0.435978  2 N  px         
    11      0.417389  1 N  px                30     -0.417389  2 N  px         

 Vector    9  Occ=0.000000D+00  E=-4.175441D-02  Symmetry=eg
              MO Center= -8.4D-29, -2.1D-27, -7.8D-16, r^2= 1.7D+00
   Bfn.  Coefficient  Atom+Function         Bfn.  Coefficient  Atom+Function  
  ----- ------------  ---------------      ----- ------------  ---------------
     4      0.500145  1 N  py                23     -0.500145  2 N  py         
     8      0.435978  1 N  py                27     -0.435978  2 N  py         
    12      0.417389  1 N  py                31     -0.417389  2 N  py         

 Vector   10  Occ=0.000000D+00  E= 5.886641D-02  Symmetry=a1g
              MO Center= -9.3D-17,  9.7D-18, -2.2D-13, r^2= 6.2D+00
   Bfn.  Coefficient  Atom+Function         Bfn.  Coefficient  Atom+Function  
  ----- ------------  ---------------      ----- ------------  ---------------
    10      0.889756  1 N  s                 29      0.889756  2 N  s          
     6     -0.672722  1 N  s                 25     -0.672722  2 N  s          
    13     -0.323001  1 N  pz                32      0.323001  2 N  pz         
     9      0.189395  1 N  pz                28     -0.189395  2 N  pz         

 Vector   11  Occ=0.000000D+00  E= 7.410775D-02  Symmetry=a2u
              MO Center=  3.1D-21, -1.2D-22,  2.3D-13, r^2= 9.2D+00
   Bfn.  Coefficient  Atom+Function         Bfn.  Coefficient  Atom+Function  
  ----- ------------  ---------------      ----- ------------  ---------------
    10     11.311320  1 N  s                 29    -11.311320  2 N  s          
    13      3.773963  1 N  pz                32      3.773963  2 N  pz         
     9     -0.224781  1 N  pz                28     -0.224781  2 N  pz         

 Vector   12  Occ=0.000000D+00  E= 8.575047D-02  Symmetry=eu
              MO Center=  1.6D-17,  2.2D-17, -1.5D-15, r^2= 6.6D+00
   Bfn.  Coefficient  Atom+Function         Bfn.  Coefficient  Atom+Function  
  ----- ------------  ---------------      ----- ------------  ---------------
    12      0.489775  1 N  py                31      0.489775  2 N  py         
    11      0.378633  1 N  px                30      0.378633  2 N  px         
     8     -0.170286  1 N  py                27     -0.170286  2 N  py         

 Vector   13  Occ=0.000000D+00  E= 8.575047D-02  Symmetry=eu
              MO Center=  5.3D-18, -2.1D-18, -1.8D-16, r^2= 6.6D+00
   Bfn.  Coefficient  Atom+Function         Bfn.  Coefficient  Atom+Function  
  ----- ------------  ---------------      ----- ------------  ---------------
    11      0.489775  1 N  px                30      0.489775  2 N  px         
    12     -0.378633  1 N  py                31     -0.378633  2 N  py         
     7     -0.170286  1 N  px                26     -0.170286  2 N  px         

 Vector   14  Occ=0.000000D+00  E= 1.364405D-01  Symmetry=a1g
              MO Center= -6.7D-18, -1.8D-17,  1.7D-13, r^2= 7.5D+00
   Bfn.  Coefficient  Atom+Function         Bfn.  Coefficient  Atom+Function  
  ----- ------------  ---------------      ----- ------------  ---------------
    13      1.539771  1 N  pz                32     -1.539771  2 N  pz         
     6     -0.433634  1 N  s                 25     -0.433634  2 N  s          

 Vector   15  Occ=0.000000D+00  E= 1.656737D-01  Symmetry=eg
              MO Center= -1.5D-19, -4.4D-18,  8.9D-16, r^2= 8.1D+00
   Bfn.  Coefficient  Atom+Function         Bfn.  Coefficient  Atom+Function  
  ----- ------------  ---------------      ----- ------------  ---------------
    12      2.077032  1 N  py                31     -2.077032  2 N  py         
    11     -0.586494  1 N  px                30      0.586494  2 N  px         
     8     -0.397568  1 N  py                27      0.397568  2 N  py         
     4     -0.223471  1 N  py                23      0.223471  2 N  py         

 Vector   16  Occ=0.000000D+00  E= 1.656737D-01  Symmetry=eg
              MO Center= -1.3D-17, -1.4D-17,  8.9D-16, r^2= 8.1D+00
   Bfn.  Coefficient  Atom+Function         Bfn.  Coefficient  Atom+Function  
  ----- ------------  ---------------      ----- ------------  ---------------
    11      2.077032  1 N  px                30     -2.077032  2 N  px         
    12      0.586494  1 N  py                31     -0.586494  2 N  py         
     7     -0.397568  1 N  px                26      0.397568  2 N  px         
     3     -0.223471  1 N  px                22      0.223471  2 N  px         

 Vector   17  Occ=0.000000D+00  E= 2.538431D-01  Symmetry=a2u
              MO Center=  6.5D-19,  1.0D-18, -3.3D-13, r^2= 8.8D+00
   Bfn.  Coefficient  Atom+Function         Bfn.  Coefficient  Atom+Function  
  ----- ------------  ---------------      ----- ------------  ---------------
    10     39.251016  1 N  s                 29    -39.251016  2 N  s          
    13     10.460353  1 N  pz                32     10.460353  2 N  pz         
     6     -0.677740  1 N  s                 25      0.677740  2 N  s          
     9      0.347209  1 N  pz                28      0.347209  2 N  pz         

 Vector   18  Occ=0.000000D+00  E= 5.098568D-01  Symmetry=a2u
              MO Center= -2.8D-17,  2.6D-17, -4.9D-15, r^2= 3.0D+00
   Bfn.  Coefficient  Atom+Function         Bfn.  Coefficient  Atom+Function  
  ----- ------------  ---------------      ----- ------------  ---------------
     6      4.409436  1 N  s                 25     -4.409436  2 N  s          
    10     -4.033776  1 N  s                 29      4.033776  2 N  s          
     9      2.917794  1 N  pz                28      2.917794  2 N  pz         
    13     -1.465712  1 N  pz                32     -1.465712  2 N  pz         
     5      0.321071  1 N  pz                24      0.321071  2 N  pz         


 center of mass
 --------------
 x =   0.00000000 y =   0.00000000 z =   0.00000000

 moments of inertia (a.u.)
 ------------------
          30.253547438217           0.000000000000           0.000000000000
           0.000000000000          30.253547438217           0.000000000000
           0.000000000000           0.000000000000           0.000000000000

     Multipole analysis of the density
     ---------------------------------

     L   x y z        total         alpha         beta         nuclear
     -   - - -        -----         -----         ----         -------
     0   0 0 0     -0.000000     -7.000000     -7.000000     14.000000

     1   1 0 0      0.000000      0.000000      0.000000      0.000000
     1   0 1 0     -0.000000     -0.000000     -0.000000      0.000000
     1   0 0 1     -0.000000     -0.000000     -0.000000      0.000000

     2   2 0 0     -7.845902     -3.922951     -3.922951      0.000000
     2   1 1 0     -0.000000     -0.000000     -0.000000      0.000000
     2   1 0 1      0.000000      0.000000      0.000000      0.000000
     2   0 2 0     -7.845902     -3.922951     -3.922951      0.000000
     2   0 1 1     -0.000000     -0.000000     -0.000000      0.000000
     2   0 0 2     -9.109454    -12.116456    -12.116456     15.123457


 Parallel integral file used       2 records with       0 large values



                            NWChem DFT Gradient Module
                            --------------------------


                                  N2 dft optimize



  charge          =   0.00
  wavefunction    = closed shell

  Using symmetry


                         DFT ENERGY GRADIENTS

    atom               coordinates                        gradient
                 x          y          z           x          y          z
   1 N       0.000000   0.000000  -1.039349    0.000000   0.000000   0.078615
   2 N       0.000000   0.000000   1.039349    0.000000   0.000000  -0.078615

                 ----------------------------------------
                 |  Time  |  1-e(secs)   |  2-e(secs)   |
                 ----------------------------------------
                 |  CPU   |       0.00   |       0.14   |
                 ----------------------------------------
                 |  WALL  |       0.00   |       0.15   |
                 ----------------------------------------

@ Step       Energy      Delta E   Gmax     Grms     Xrms     Xmax   Walltime
@ ---- ---------------- -------- -------- -------- -------- -------- --------
@    0    -108.95887202  0.0D+00  0.07861  0.07861  0.00000  0.00000      0.5
                                                                    



                                Z-matrix (autoz)
                                -------- 

 Units are Angstrom for bonds and degrees for angles

      Type          Name      I     J     K     L     M      Value     Gradient
      ----------- --------  ----- ----- ----- ----- ----- ---------- ----------
    1 Stretch                  1     2                       1.10000   -0.07861


                                 NWChem DFT Module
                                 -----------------


                                  N2 dft optimize


  Caching 1-el integrals 

            General Information
            -------------------
          SCF calculation type: DFT
          Wavefunction type:  closed shell.
          No. of atoms     :     2
          No. of electrons :    14
           Alpha electrons :     7
            Beta electrons :     7
          Charge           :     0
          Spin multiplicity:     1
          Use of symmetry is: on ; symmetry adaption is: on 
          Maximum number of iterations:  30
          AO basis - number of functions:    38
                     number of shells:    16
          Convergence on energy requested: 1.00D-06
          Convergence on density requested: 1.00D-05
          Convergence on gradient requested: 5.00D-04

              XC Information
              --------------
          PerdewBurkeErnzerhof Exchange Functional  1.000          

             Grid Information
             ----------------
          Grid used for XC integration:  medium    
          Radial quadrature: Mura-Knowles        
          Angular quadrature: Lebedev. 
          Tag              B.-S. Rad. Rad. Pts. Rad. Cut. Ang. Pts.
          ---              ---------- --------- --------- ---------
          N                   0.65       49           8.0       434
          Grid pruning is: on 
          Number of quadrature shells:    49
          Spatial weights used:  Erf1

          Convergence Information
          -----------------------
          Convergence aids based upon iterative change in 
          total energy or number of iterations. 
          Levelshifting, if invoked, occurs when the 
          HOMO/LUMO gap drops below (HL_TOL): 1.00D-02
          DIIS, if invoked, will attempt to extrapolate 
          using up to (NFOCK): 10 stored Fock matrices.

                    Damping( 0%)  Levelshifting(0.5)       DIIS
                  --------------- ------------------- ---------------
          dE  on:    start            ASAP                start   
          dE off:    2 iters         30 iters            30 iters 


      Screening Tolerance Information
      -------------------------------
          Density screening/tol_rho: 1.00D-10
          AO Gaussian exp screening on grid/accAOfunc:  14
          CD Gaussian exp screening on grid/accCDfunc:  20
          XC Gaussian exp screening on grid/accXCfunc:  20
          Schwarz screening/accCoul: 1.00D-08


 Loading old vectors from job with title :

N2 dft optimize


      Symmetry analysis of molecular orbitals - initial
      -------------------------------------------------

  Numbering of irreducible representations: 

     1 a1g         2 a1u         3 a2g         4 a2u         5 b1g     
     6 b1u         7 b2g         8 b2u         9 eg         10 eu      

  Orbital symmetries:

     1 a1g         2 a2u         3 a1g         4 a2u         5 eu      
     6 eu          7 a1g         8 eg          9 eg         10 a1g     
    11 a2u        12 eu         13 eu         14 a1g        15 eg      
    16 eg         17 a2u     

   Time after variat. SCF:      0.5
   Time prior to 1st pass:      0.5

 Integral file          = ./N2.aoints.0
 Record size in doubles =  65536        No. of integs per rec  =  43688
 Max. records in memory =      2        Max. records in file   = 185701
 No. of bits per label  =      8        No. of bits per value  =     64


 #quartets = 6.345D+03 #integrals = 5.603D+04 #direct =  0.0% #cached =100.0%


 Grid_pts file          = ./N2.gridpts.0
 Record size in doubles =  12289        No. of grid_pts per rec  =   3070
 Max. records in memory =      9        Max. recs in file   =    990331


           Memory utilization after 1st SCF pass: 
           Heap Space remaining (MW):       32.52            32524411
          Stack Space remaining (MW):       32.77            32767697

   convergence    iter        energy       DeltaE   RMS-Dens  Diis-err    time
 ---------------- ----- ----------------- --------- --------- ---------  ------
 d= 0,ls=0.0,diis     1   -108.9550508198 -1.31D+02  6.09D-03  1.84D-02     0.6
 d= 0,ls=0.0,diis     2   -108.9570397883 -1.99D-03  4.08D-03  6.31D-03     0.7
 d= 0,ls=0.0,diis     3   -108.9577597036 -7.20D-04  1.08D-03  5.38D-04     0.7
 d= 0,ls=0.0,diis     4   -108.9578305599 -7.09D-05  4.25D-05  5.73D-07     0.7
 d= 0,ls=0.0,diis     5   -108.9578306262 -6.63D-08  5.06D-06  1.74D-08     0.7


         Total DFT energy =     -108.957830626225
      One electron energy =     -191.586461011511
           Coulomb energy =       73.363964505956
    Exchange-Corr. energy =      -13.002582103963
 Nuclear repulsion energy =       22.267247983292

 Numeric. integr. density =       14.000000904530

     Total iterative time =      0.2s



                  Occupations of the irreducible representations
                  ----------------------------------------------

                     irrep           alpha         beta
                     --------     --------     --------
                     a1g               3.0          3.0
                     a1u               0.0          0.0
                     a2g               0.0          0.0
                     a2u               2.0          2.0
                     b1g               0.0          0.0
                     b1u               0.0          0.0
                     b2g               0.0          0.0
                     b2u               0.0          0.0
                     eg                0.0          0.0
                     eu                2.0          2.0


                       DFT Final Molecular Orbital Analysis
                       ------------------------------------

 Vector    1  Occ=2.000000D+00  E=-1.411186D+01  Symmetry=a1g
              MO Center=  1.1D-17,  3.8D-18,  1.6D-12, r^2= 3.6D-01
   Bfn.  Coefficient  Atom+Function         Bfn.  Coefficient  Atom+Function  
  ----- ------------  ---------------      ----- ------------  ---------------
     1      0.701670  1 N  s                 20      0.701670  2 N  s          

 Vector    2  Occ=2.000000D+00  E=-1.411121D+01  Symmetry=a2u
              MO Center= -9.1D-20,  2.9D-20, -1.6D-12, r^2= 3.6D-01
   Bfn.  Coefficient  Atom+Function         Bfn.  Coefficient  Atom+Function  
  ----- ------------  ---------------      ----- ------------  ---------------
     1      0.701676  1 N  s                 20     -0.701676  2 N  s          

 Vector    3  Occ=2.000000D+00  E=-9.692043D-01  Symmetry=a1g
              MO Center= -9.8D-33, -3.5D-33, -1.1D-16, r^2= 4.7D-01
   Bfn.  Coefficient  Atom+Function         Bfn.  Coefficient  Atom+Function  
  ----- ------------  ---------------      ----- ------------  ---------------
     2      0.337180  1 N  s                 21      0.337180  2 N  s          
     6      0.227587  1 N  s                 25      0.227587  2 N  s          
     5      0.220538  1 N  pz                24     -0.220538  2 N  pz         
     1     -0.157945  1 N  s                 20     -0.157945  2 N  s          

 Vector    4  Occ=2.000000D+00  E=-4.784769D-01  Symmetry=a2u
              MO Center= -5.3D-35, -3.8D-34,  2.2D-16, r^2= 1.3D+00
   Bfn.  Coefficient  Atom+Function         Bfn.  Coefficient  Atom+Function  
  ----- ------------  ---------------      ----- ------------  ---------------
     6      0.563162  1 N  s                 25     -0.563162  2 N  s          
     2      0.345395  1 N  s                 21     -0.345395  2 N  s          
    10     -0.266093  1 N  s                 29      0.266093  2 N  s          
     5     -0.195988  1 N  pz                24     -0.195988  2 N  pz         
     1     -0.155331  1 N  s                 20      0.155331  2 N  s          

 Vector    5  Occ=2.000000D+00  E=-3.733880D-01  Symmetry=eu
              MO Center=  4.5D-17,  6.1D-17,  1.2D-16, r^2= 9.7D-01
   Bfn.  Coefficient  Atom+Function         Bfn.  Coefficient  Atom+Function  
  ----- ------------  ---------------      ----- ------------  ---------------
     3      0.362161  1 N  px                22      0.362161  2 N  px         
     4      0.278672  1 N  py                23      0.278672  2 N  py         
     7      0.179210  1 N  px                26      0.179210  2 N  px         

 Vector    6  Occ=2.000000D+00  E=-3.733880D-01  Symmetry=eu
              MO Center=  6.0D-23, -7.8D-23,  2.1D-17, r^2= 9.7D-01
   Bfn.  Coefficient  Atom+Function         Bfn.  Coefficient  Atom+Function  
  ----- ------------  ---------------      ----- ------------  ---------------
     4      0.362161  1 N  py                23      0.362161  2 N  py         
     3     -0.278672  1 N  px                22     -0.278672  2 N  px         
     8      0.179210  1 N  py                27      0.179210  2 N  py         

 Vector    7  Occ=2.000000D+00  E=-3.428950D-01  Symmetry=a1g
              MO Center=  2.2D-19, -1.8D-18, -8.0D-16, r^2= 1.4D+00
   Bfn.  Coefficient  Atom+Function         Bfn.  Coefficient  Atom+Function  
  ----- ------------  ---------------      ----- ------------  ---------------
     5      0.458326  1 N  pz                24     -0.458326  2 N  pz         
     6     -0.253121  1 N  s                 25     -0.253121  2 N  s          
     9      0.180746  1 N  pz                28     -0.180746  2 N  pz         

 Vector    8  Occ=0.000000D+00  E=-6.791544D-02  Symmetry=eg
              MO Center= -1.7D-18, -3.3D-18,  3.3D-16, r^2= 1.5D+00
   Bfn.  Coefficient  Atom+Function         Bfn.  Coefficient  Atom+Function  
  ----- ------------  ---------------      ----- ------------  ---------------
     3      0.508529  1 N  px                22     -0.508529  2 N  px         
     7      0.414955  1 N  px                26     -0.414955  2 N  px         
    11      0.327026  1 N  px                30     -0.327026  2 N  px         

 Vector    9  Occ=0.000000D+00  E=-6.791544D-02  Symmetry=eg
              MO Center= -6.5D-27,  1.2D-25,  2.2D-16, r^2= 1.5D+00
   Bfn.  Coefficient  Atom+Function         Bfn.  Coefficient  Atom+Function  
  ----- ------------  ---------------      ----- ------------  ---------------
     4      0.508529  1 N  py                23     -0.508529  2 N  py         
     8      0.414955  1 N  py                27     -0.414955  2 N  py         
    12      0.327026  1 N  py                31     -0.327026  2 N  py         

 Vector   10  Occ=0.000000D+00  E= 5.726784D-02  Symmetry=a1g
              MO Center=  2.4D-17,  1.8D-17, -6.9D-18, r^2= 6.2D+00
   Bfn.  Coefficient  Atom+Function         Bfn.  Coefficient  Atom+Function  
  ----- ------------  ---------------      ----- ------------  ---------------
    10      0.894102  1 N  s                 29      0.894102  2 N  s          
     6     -0.679978  1 N  s                 25     -0.679978  2 N  s          
    13     -0.291302  1 N  pz                32      0.291302  2 N  pz         
     9      0.177557  1 N  pz                28     -0.177557  2 N  pz         

 Vector   11  Occ=0.000000D+00  E= 7.226790D-02  Symmetry=a2u
              MO Center= -4.5D-20, -2.5D-21,  7.1D-15, r^2= 9.2D+00
   Bfn.  Coefficient  Atom+Function         Bfn.  Coefficient  Atom+Function  
  ----- ------------  ---------------      ----- ------------  ---------------
    10      9.221796  1 N  s                 29     -9.221796  2 N  s          
    13      3.368107  1 N  pz                32      3.368107  2 N  pz         
     9     -0.181911  1 N  pz                28     -0.181911  2 N  pz         

 Vector   12  Occ=0.000000D+00  E= 8.712829D-02  Symmetry=eu
              MO Center=  1.1D-23,  3.0D-23,  1.4D-16, r^2= 6.7D+00
   Bfn.  Coefficient  Atom+Function         Bfn.  Coefficient  Atom+Function  
  ----- ------------  ---------------      ----- ------------  ---------------
    12      0.589493  1 N  py                31      0.589493  2 N  py         
     8     -0.214488  1 N  py                27     -0.214488  2 N  py         
    11      0.207332  1 N  px                30      0.207332  2 N  px         

 Vector   13  Occ=0.000000D+00  E= 8.712829D-02  Symmetry=eu
              MO Center=  2.5D-23, -8.9D-24, -3.3D-16, r^2= 6.7D+00
   Bfn.  Coefficient  Atom+Function         Bfn.  Coefficient  Atom+Function  
  ----- ------------  ---------------      ----- ------------  ---------------
    11      0.589493  1 N  px                30      0.589493  2 N  px         
     7     -0.214488  1 N  px                26     -0.214488  2 N  px         
    12     -0.207332  1 N  py                31     -0.207332  2 N  py         

 Vector   14  Occ=0.000000D+00  E= 1.357416D-01  Symmetry=a1g
              MO Center= -7.6D-18, -7.0D-17,  1.4D-14, r^2= 7.6D+00
   Bfn.  Coefficient  Atom+Function         Bfn.  Coefficient  Atom+Function  
  ----- ------------  ---------------      ----- ------------  ---------------
    13      1.472553  1 N  pz                32     -1.472553  2 N  pz         
     6     -0.418554  1 N  s                 25     -0.418554  2 N  s          

 Vector   15  Occ=0.000000D+00  E= 1.612271D-01  Symmetry=eg
              MO Center=  9.1D-18, -1.1D-17, -5.6D-16, r^2= 8.3D+00
   Bfn.  Coefficient  Atom+Function         Bfn.  Coefficient  Atom+Function  
  ----- ------------  ---------------      ----- ------------  ---------------
    12      1.717103  1 N  py                31     -1.717103  2 N  py         
    11     -1.134321  1 N  px                30      1.134321  2 N  px         
     8     -0.310637  1 N  py                27      0.310637  2 N  py         
     7      0.205207  1 N  px                26     -0.205207  2 N  px         
     4     -0.177794  1 N  py                23      0.177794  2 N  py         

 Vector   16  Occ=0.000000D+00  E= 1.612271D-01  Symmetry=eg
              MO Center=  1.2D-25,  8.2D-26, -1.1D-16, r^2= 8.3D+00
   Bfn.  Coefficient  Atom+Function         Bfn.  Coefficient  Atom+Function  
  ----- ------------  ---------------      ----- ------------  ---------------
    11      1.717103  1 N  px                30     -1.717103  2 N  px         
    12      1.134321  1 N  py                31     -1.134321  2 N  py         
     7     -0.310637  1 N  px                26      0.310637  2 N  px         
     8     -0.205207  1 N  py                27      0.205207  2 N  py         
     3     -0.177794  1 N  px                22      0.177794  2 N  px         

 Vector   17  Occ=0.000000D+00  E= 2.520157D-01  Symmetry=a2u
              MO Center= -3.4D-18,  1.4D-17, -1.6D-13, r^2= 8.8D+00
   Bfn.  Coefficient  Atom+Function         Bfn.  Coefficient  Atom+Function  
  ----- ------------  ---------------      ----- ------------  ---------------
    10     33.184465  1 N  s                 29    -33.184465  2 N  s          
    13      9.369017  1 N  pz                32      9.369017  2 N  pz         
     6     -0.734595  1 N  s                 25      0.734595  2 N  s          
     9      0.318564  1 N  pz                28      0.318564  2 N  pz         

 Vector   18  Occ=0.000000D+00  E= 4.449944D-01  Symmetry=a2u
              MO Center=  8.8D-17, -2.9D-17,  2.2D-15, r^2= 2.6D+00
   Bfn.  Coefficient  Atom+Function         Bfn.  Coefficient  Atom+Function  
  ----- ------------  ---------------      ----- ------------  ---------------
    10      4.183808  1 N  s                 29     -4.183808  2 N  s          
     6     -3.185956  1 N  s                 25      3.185956  2 N  s          
     9     -2.260108  1 N  pz                28     -2.260108  2 N  pz         
    13      1.531471  1 N  pz                32      1.531471  2 N  pz         
     5     -0.429025  1 N  pz                24     -0.429025  2 N  pz         

 Vector   19  Occ=0.000000D+00  E= 7.608040D-01  Symmetry=a1g
              MO Center=  1.6D-16,  5.1D-16,  1.8D-14, r^2= 3.5D+00
   Bfn.  Coefficient  Atom+Function         Bfn.  Coefficient  Atom+Function  
  ----- ------------  ---------------      ----- ------------  ---------------
     9      1.126192  1 N  pz                28     -1.126192  2 N  pz         
    13     -0.861958  1 N  pz                32      0.861958  2 N  pz         
     5     -0.524887  1 N  pz                24      0.524887  2 N  pz         
    10      0.160717  1 N  s                 29      0.160717  2 N  s          


 center of mass
 --------------
 x =   0.00000000 y =   0.00000000 z =   0.00000000

 moments of inertia (a.u.)
 ------------------
          33.904108774030           0.000000000000           0.000000000000
           0.000000000000          33.904108774030           0.000000000000
           0.000000000000           0.000000000000           0.000000000000

     Multipole analysis of the density
     ---------------------------------

     L   x y z        total         alpha         beta         nuclear
     -   - - -        -----         -----         ----         -------
     0   0 0 0     -0.000000     -7.000000     -7.000000     14.000000

     1   1 0 0     -0.000000     -0.000000     -0.000000      0.000000
     1   0 1 0     -0.000000     -0.000000     -0.000000      0.000000
     1   0 0 1      0.000000      0.000000      0.000000      0.000000

     2   2 0 0     -7.989645     -3.994822     -3.994822      0.000000
     2   1 1 0      0.000000      0.000000      0.000000      0.000000
     2   1 0 1      0.000000      0.000000      0.000000      0.000000
     2   0 2 0     -7.989645     -3.994822     -3.994822      0.000000
     2   0 1 1      0.000000      0.000000      0.000000      0.000000
     2   0 0 2     -9.145015    -13.046676    -13.046676     16.948338


 Parallel integral file used       2 records with       0 large values

 Line search: 
     step= 1.00 grad=-9.6D-03 hess= 1.1D-02 energy=   -108.957831 mode=bracket 
 new step= 0.45                   predicted energy=   -108.961032

          --------
          Step   1
          --------


                         Geometry "geometry" -> "geometry"
                         ---------------------------------

 Output coordinates in angstroms (scale by  1.889725989 to convert to a.u.)

  No.       Tag          Charge          X              Y              Z
 ---- ---------------- ---------- -------------- -------------- --------------
    1 N                    7.0000     0.00000000     0.00000000    -0.56453848
    2 N                    7.0000     0.00000000     0.00000000     0.56453848

      Atomic Mass 
      ----------- 

      N                 14.003070


 Effective nuclear repulsion energy (a.u.)      22.9653834199

            Nuclear Dipole moment (a.u.) 
            ----------------------------
        X                 Y               Z
 ---------------- ---------------- ----------------
     0.0000000000     0.0000000000     0.0000000000

      Symmetry information
      --------------------

 Group name             D4h       
 Group number             28
 Group order              16
 No. of unique centers     1

      Symmetry unique atoms

     1


                                 NWChem DFT Module
                                 -----------------


                                  N2 dft optimize


  Caching 1-el integrals 

            General Information
            -------------------
          SCF calculation type: DFT
          Wavefunction type:  closed shell.
          No. of atoms     :     2
          No. of electrons :    14
           Alpha electrons :     7
            Beta electrons :     7
          Charge           :     0
          Spin multiplicity:     1
          Use of symmetry is: on ; symmetry adaption is: on 
          Maximum number of iterations:  30
          AO basis - number of functions:    38
                     number of shells:    16
          Convergence on energy requested: 1.00D-06
          Convergence on density requested: 1.00D-05
          Convergence on gradient requested: 5.00D-04

              XC Information
              --------------
          PerdewBurkeErnzerhof Exchange Functional  1.000          

             Grid Information
             ----------------
          Grid used for XC integration:  medium    
          Radial quadrature: Mura-Knowles        
          Angular quadrature: Lebedev. 
          Tag              B.-S. Rad. Rad. Pts. Rad. Cut. Ang. Pts.
          ---              ---------- --------- --------- ---------
          N                   0.65       49           8.0       434
          Grid pruning is: on 
          Number of quadrature shells:    49
          Spatial weights used:  Erf1

          Convergence Information
          -----------------------
          Convergence aids based upon iterative change in 
          total energy or number of iterations. 
          Levelshifting, if invoked, occurs when the 
          HOMO/LUMO gap drops below (HL_TOL): 1.00D-02
          DIIS, if invoked, will attempt to extrapolate 
          using up to (NFOCK): 10 stored Fock matrices.

                    Damping( 0%)  Levelshifting(0.5)       DIIS
                  --------------- ------------------- ---------------
          dE  on:    start            ASAP                start   
          dE off:    2 iters         30 iters            30 iters 


      Screening Tolerance Information
      -------------------------------
          Density screening/tol_rho: 1.00D-10
          AO Gaussian exp screening on grid/accAOfunc:  14
          CD Gaussian exp screening on grid/accCDfunc:  20
          XC Gaussian exp screening on grid/accXCfunc:  20
          Schwarz screening/accCoul: 1.00D-08


 Loading old vectors from job with title :

N2 dft optimize


      Symmetry analysis of molecular orbitals - initial
      -------------------------------------------------

  Numbering of irreducible representations: 

     1 a1g         2 a1u         3 a2g         4 a2u         5 b1g     
     6 b1u         7 b2g         8 b2u         9 eg         10 eu      

  Orbital symmetries:

     1 a1g         2 a2u         3 a1g         4 a2u         5 eu      
     6 eu          7 a1g         8 eg          9 eg         10 a1g     
    11 a2u        12 eu         13 eu         14 a1g        15 eg      
    16 eg         17 a2u     

   Time after variat. SCF:      0.7
   Time prior to 1st pass:      0.7

 Integral file          = ./N2.aoints.0
 Record size in doubles =  65536        No. of integs per rec  =  43688
 Max. records in memory =      2        Max. records in file   = 185701
 No. of bits per label  =      8        No. of bits per value  =     64


 #quartets = 6.345D+03 #integrals = 5.603D+04 #direct =  0.0% #cached =100.0%


 Grid_pts file          = ./N2.gridpts.0
 Record size in doubles =  12289        No. of grid_pts per rec  =   3070
 Max. records in memory =      9        Max. recs in file   =    990331


           Memory utilization after 1st SCF pass: 
           Heap Space remaining (MW):       32.52            32524411
          Stack Space remaining (MW):       32.77            32767697

   convergence    iter        energy       DeltaE   RMS-Dens  Diis-err    time
 ---------------- ----- ----------------- --------- --------- ---------  ------
 d= 0,ls=0.0,diis     1   -108.9600294661 -1.32D+02  3.42D-03  5.51D-03     0.8
 d= 0,ls=0.0,diis     2   -108.9606260304 -5.97D-04  2.37D-03  1.79D-03     0.9
 d= 0,ls=0.0,diis     3   -108.9608272487 -2.01D-04  6.39D-04  1.60D-04     0.9
 d= 0,ls=0.0,diis     4   -108.9608481218 -2.09D-05  3.32D-05  2.66D-07     0.9
 d= 0,ls=0.0,diis     5   -108.9608481537 -3.19D-08  3.08D-06  5.47D-09     0.9


         Total DFT energy =     -108.960848153710
      One electron energy =     -192.934495679783
           Coulomb energy =       74.047234383492
    Exchange-Corr. energy =      -13.038970277308
 Nuclear repulsion energy =       22.965383419889

 Numeric. integr. density =       14.000000634071

     Total iterative time =      0.2s



                  Occupations of the irreducible representations
                  ----------------------------------------------

                     irrep           alpha         beta
                     --------     --------     --------
                     a1g               3.0          3.0
                     a1u               0.0          0.0
                     a2g               0.0          0.0
                     a2u               2.0          2.0
                     b1g               0.0          0.0
                     b1u               0.0          0.0
                     b2g               0.0          0.0
                     b2u               0.0          0.0
                     eg                0.0          0.0
                     eu                2.0          2.0


                       DFT Final Molecular Orbital Analysis
                       ------------------------------------

 Vector    1  Occ=2.000000D+00  E=-1.410471D+01  Symmetry=a1g
              MO Center=  0.0D+00,  0.0D+00,  2.2D-16, r^2= 3.4D-01
   Bfn.  Coefficient  Atom+Function         Bfn.  Coefficient  Atom+Function  
  ----- ------------  ---------------      ----- ------------  ---------------
     1      0.701629  1 N  s                 20      0.701629  2 N  s          

 Vector    2  Occ=2.000000D+00  E=-1.410377D+01  Symmetry=a2u
              MO Center= -5.0D-19, -7.4D-19, -1.7D-16, r^2= 3.4D-01
   Bfn.  Coefficient  Atom+Function         Bfn.  Coefficient  Atom+Function  
  ----- ------------  ---------------      ----- ------------  ---------------
     1      0.701683  1 N  s                 20     -0.701683  2 N  s          

 Vector    3  Occ=2.000000D+00  E=-9.885607D-01  Symmetry=a1g
              MO Center=  8.0D-18, -1.2D-17, -6.1D-16, r^2= 4.5D-01
   Bfn.  Coefficient  Atom+Function         Bfn.  Coefficient  Atom+Function  
  ----- ------------  ---------------      ----- ------------  ---------------
     2      0.336417  1 N  s                 21      0.336417  2 N  s          
     5      0.227598  1 N  pz                24     -0.227598  2 N  pz         
     6      0.220093  1 N  s                 25      0.220093  2 N  s          
     1     -0.160128  1 N  s                 20     -0.160128  2 N  s          

 Vector    4  Occ=2.000000D+00  E=-4.695461D-01  Symmetry=a2u
              MO Center= -7.0D-18, -1.2D-18, -1.3D-15, r^2= 1.3D+00
   Bfn.  Coefficient  Atom+Function         Bfn.  Coefficient  Atom+Function  
  ----- ------------  ---------------      ----- ------------  ---------------
     6      0.569318  1 N  s                 25     -0.569318  2 N  s          
     2      0.339326  1 N  s                 21     -0.339326  2 N  s          
    10     -0.277379  1 N  s                 29      0.277379  2 N  s          
     5     -0.205508  1 N  pz                24     -0.205508  2 N  pz         
     1     -0.153954  1 N  s                 20      0.153954  2 N  s          

 Vector    5  Occ=2.000000D+00  E=-3.825599D-01  Symmetry=eu
              MO Center= -9.1D-18, -5.5D-19,  2.9D-16, r^2= 9.4D-01
   Bfn.  Coefficient  Atom+Function         Bfn.  Coefficient  Atom+Function  
  ----- ------------  ---------------      ----- ------------  ---------------
     3      0.394131  1 N  px                22      0.394131  2 N  px         
     4      0.233537  1 N  py                23      0.233537  2 N  py         
     7      0.190161  1 N  px                26      0.190161  2 N  px         

 Vector    6  Occ=2.000000D+00  E=-3.825599D-01  Symmetry=eu
              MO Center=  2.0D-22, -3.4D-22, -5.6D-17, r^2= 9.4D-01
   Bfn.  Coefficient  Atom+Function         Bfn.  Coefficient  Atom+Function  
  ----- ------------  ---------------      ----- ------------  ---------------
     4      0.394131  1 N  py                23      0.394131  2 N  py         
     3     -0.233537  1 N  px                22     -0.233537  2 N  px         
     8      0.190161  1 N  py                27      0.190161  2 N  py         

 Vector    7  Occ=2.000000D+00  E=-3.438492D-01  Symmetry=a1g
              MO Center= -1.4D-17, -9.6D-18, -1.1D-16, r^2= 1.4D+00
   Bfn.  Coefficient  Atom+Function         Bfn.  Coefficient  Atom+Function  
  ----- ------------  ---------------      ----- ------------  ---------------
     5      0.457025  1 N  pz                24     -0.457025  2 N  pz         
     6     -0.257351  1 N  s                 25     -0.257351  2 N  s          
     9      0.175861  1 N  pz                28     -0.175861  2 N  pz         

 Vector    8  Occ=0.000000D+00  E=-5.389601D-02  Symmetry=eg
              MO Center=  8.3D-22, -5.8D-23, -5.6D-16, r^2= 1.6D+00
   Bfn.  Coefficient  Atom+Function         Bfn.  Coefficient  Atom+Function  
  ----- ------------  ---------------      ----- ------------  ---------------
     3      0.503835  1 N  px                22     -0.503835  2 N  px         
     7      0.425863  1 N  px                26     -0.425863  2 N  px         
    11      0.371590  1 N  px                30     -0.371590  2 N  px         

 Vector    9  Occ=0.000000D+00  E=-5.389601D-02  Symmetry=eg
              MO Center= -6.7D-18, -4.6D-19,  0.0D+00, r^2= 1.6D+00
   Bfn.  Coefficient  Atom+Function         Bfn.  Coefficient  Atom+Function  
  ----- ------------  ---------------      ----- ------------  ---------------
     4      0.503835  1 N  py                23     -0.503835  2 N  py         
     8      0.425863  1 N  py                27     -0.425863  2 N  py         
    12      0.371590  1 N  py                31     -0.371590  2 N  py         

 Vector   10  Occ=0.000000D+00  E= 5.814510D-02  Symmetry=a1g
              MO Center=  4.4D-18,  6.0D-17,  8.0D-14, r^2= 6.2D+00
   Bfn.  Coefficient  Atom+Function         Bfn.  Coefficient  Atom+Function  
  ----- ------------  ---------------      ----- ------------  ---------------
    10      0.891730  1 N  s                 29      0.891730  2 N  s          
     6     -0.676222  1 N  s                 25     -0.676222  2 N  s          
    13     -0.307653  1 N  pz                32      0.307653  2 N  pz         
     9      0.184064  1 N  pz                28     -0.184064  2 N  pz         

 Vector   11  Occ=0.000000D+00  E= 7.333200D-02  Symmetry=a2u
              MO Center=  5.3D-19, -3.6D-19, -1.2D-13, r^2= 9.2D+00
   Bfn.  Coefficient  Atom+Function         Bfn.  Coefficient  Atom+Function  
  ----- ------------  ---------------      ----- ------------  ---------------
    10     10.308231  1 N  s                 29    -10.308231  2 N  s          
    13      3.582736  1 N  pz                32      3.582736  2 N  pz         
     9     -0.205791  1 N  pz                28     -0.205791  2 N  pz         

 Vector   12  Occ=0.000000D+00  E= 8.639094D-02  Symmetry=eu
              MO Center=  5.2D-18,  1.8D-18, -2.1D-15, r^2= 6.7D+00
   Bfn.  Coefficient  Atom+Function         Bfn.  Coefficient  Atom+Function  
  ----- ------------  ---------------      ----- ------------  ---------------
    12      0.576281  1 N  py                31      0.576281  2 N  py         
    11     -0.233352  1 N  px                30     -0.233352  2 N  px         
     8     -0.204673  1 N  py                27     -0.204673  2 N  py         

 Vector   13  Occ=0.000000D+00  E= 8.639094D-02  Symmetry=eu
              MO Center=  5.4D-18,  4.0D-18, -5.1D-15, r^2= 6.7D+00
   Bfn.  Coefficient  Atom+Function         Bfn.  Coefficient  Atom+Function  
  ----- ------------  ---------------      ----- ------------  ---------------
    11      0.576281  1 N  px                30      0.576281  2 N  px         
    12      0.233352  1 N  py                31      0.233352  2 N  py         
     7     -0.204673  1 N  px                26     -0.204673  2 N  px         

 Vector   14  Occ=0.000000D+00  E= 1.360919D-01  Symmetry=a1g
              MO Center=  7.0D-17, -5.6D-17, -6.9D-15, r^2= 7.6D+00
   Bfn.  Coefficient  Atom+Function         Bfn.  Coefficient  Atom+Function  
  ----- ------------  ---------------      ----- ------------  ---------------
    13      1.508438  1 N  pz                32     -1.508438  2 N  pz         
     6     -0.426394  1 N  s                 25     -0.426394  2 N  s          

 Vector   15  Occ=0.000000D+00  E= 1.635246D-01  Symmetry=eg
              MO Center=  5.1D-18, -1.6D-17,  6.0D-15, r^2= 8.2D+00
   Bfn.  Coefficient  Atom+Function         Bfn.  Coefficient  Atom+Function  
  ----- ------------  ---------------      ----- ------------  ---------------
    11      2.076657  1 N  px                30     -2.076657  2 N  px         
     7     -0.386336  1 N  px                12     -0.385833  1 N  py         
    26      0.386336  2 N  px                31      0.385833  2 N  py         
     3     -0.219040  1 N  px                22      0.219040  2 N  px         

 Vector   16  Occ=0.000000D+00  E= 1.635246D-01  Symmetry=eg
              MO Center= -1.1D-18, -5.9D-19,  1.6D-15, r^2= 8.2D+00
   Bfn.  Coefficient  Atom+Function         Bfn.  Coefficient  Atom+Function  
  ----- ------------  ---------------      ----- ------------  ---------------
    12      2.076657  1 N  py                31     -2.076657  2 N  py         
     8     -0.386336  1 N  py                11      0.385833  1 N  px         
    27      0.386336  2 N  py                30     -0.385833  2 N  px         
     4     -0.219040  1 N  py                23      0.219040  2 N  py         

 Vector   17  Occ=0.000000D+00  E= 2.530283D-01  Symmetry=a2u
              MO Center=  2.1D-18,  3.0D-19, -6.0D-14, r^2= 8.8D+00
   Bfn.  Coefficient  Atom+Function         Bfn.  Coefficient  Atom+Function  
  ----- ------------  ---------------      ----- ------------  ---------------
    10     36.348472  1 N  s                 29    -36.348472  2 N  s          
    13      9.946570  1 N  pz                32      9.946570  2 N  pz         
     6     -0.705993  1 N  s                 25      0.705993  2 N  s          
     9      0.333326  1 N  pz                28      0.333326  2 N  pz         

 Vector   18  Occ=0.000000D+00  E= 4.822997D-01  Symmetry=a2u
              MO Center=  2.0D-18, -1.3D-19,  4.4D-15, r^2= 2.8D+00
   Bfn.  Coefficient  Atom+Function         Bfn.  Coefficient  Atom+Function  
  ----- ------------  ---------------      ----- ------------  ---------------
    10     -4.130269  1 N  s                 29      4.130269  2 N  s          
     6      3.821705  1 N  s                 25     -3.821705  2 N  s          
     9      2.611121  1 N  pz                28      2.611121  2 N  pz         
    13     -1.501979  1 N  pz                32     -1.501979  2 N  pz         
     5      0.372876  1 N  pz                24      0.372876  2 N  pz         

 Vector   19  Occ=0.000000D+00  E= 7.493777D-01  Symmetry=a1g
              MO Center=  7.5D-20,  3.7D-21, -5.4D-15, r^2= 3.5D+00
   Bfn.  Coefficient  Atom+Function         Bfn.  Coefficient  Atom+Function  
  ----- ------------  ---------------      ----- ------------  ---------------
     9      1.146932  1 N  pz                28     -1.146932  2 N  pz         
    13     -0.891283  1 N  pz                32      0.891283  2 N  pz         
     5     -0.508133  1 N  pz                24      0.508133  2 N  pz         
     2     -0.156207  1 N  s                 21     -0.156207  2 N  s          
    10      0.153633  1 N  s                 29      0.153633  2 N  s          


 center of mass
 --------------
 x =   0.00000000 y =   0.00000000 z =   0.00000000

 moments of inertia (a.u.)
 ------------------
          31.874106764172           0.000000000000           0.000000000000
           0.000000000000          31.874106764172           0.000000000000
           0.000000000000           0.000000000000           0.000000000000

     Multipole analysis of the density
     ---------------------------------

     L   x y z        total         alpha         beta         nuclear
     -   - - -        -----         -----         ----         -------
     0   0 0 0     -0.000000     -7.000000     -7.000000     14.000000

     1   1 0 0      0.000000      0.000000      0.000000      0.000000
     1   0 1 0      0.000000      0.000000      0.000000      0.000000
     1   0 0 1      0.000000      0.000000      0.000000      0.000000

     2   2 0 0     -7.911924     -3.955962     -3.955962      0.000000
     2   1 1 0      0.000000      0.000000      0.000000      0.000000
     2   1 0 1     -0.000000     -0.000000     -0.000000      0.000000
     2   0 2 0     -7.911924     -3.955962     -3.955962      0.000000
     2   0 1 1     -0.000000     -0.000000     -0.000000      0.000000
     2   0 0 2     -9.128052    -12.530806    -12.530806     15.933559


 Parallel integral file used       2 records with       0 large values



                            NWChem DFT Gradient Module
                            --------------------------


                                  N2 dft optimize



  charge          =   0.00
  wavefunction    = closed shell

  Using symmetry


                         DFT ENERGY GRADIENTS

    atom               coordinates                        gradient
                 x          y          z           x          y          z
   1 N       0.000000   0.000000  -1.066823    0.000000   0.000000  -0.003799
   2 N       0.000000   0.000000   1.066823    0.000000  -0.000000   0.003799

                 ----------------------------------------
                 |  Time  |  1-e(secs)   |  2-e(secs)   |
                 ----------------------------------------
                 |  CPU   |       0.00   |       0.10   |
                 ----------------------------------------
                 |  WALL  |       0.00   |       0.11   |
                 ----------------------------------------

  Step       Energy      Delta E   Gmax     Grms     Xrms     Xmax   Walltime
  ---- ---------------- -------- -------- -------- -------- -------- --------
@    1    -108.96084815 -2.0D-03  0.00380  0.00380  0.01586  0.02747      1.3
                                                                    



                                Z-matrix (autoz)
                                -------- 

 Units are Angstrom for bonds and degrees for angles

      Type          Name      I     J     K     L     M      Value     Gradient
      ----------- --------  ----- ----- ----- ----- ----- ---------- ----------
    1 Stretch                  1     2                       1.12908    0.00380


                                 NWChem DFT Module
                                 -----------------


                                  N2 dft optimize


  Caching 1-el integrals 

            General Information
            -------------------
          SCF calculation type: DFT
          Wavefunction type:  closed shell.
          No. of atoms     :     2
          No. of electrons :    14
           Alpha electrons :     7
            Beta electrons :     7
          Charge           :     0
          Spin multiplicity:     1
          Use of symmetry is: on ; symmetry adaption is: on 
          Maximum number of iterations:  30
          AO basis - number of functions:    38
                     number of shells:    16
          Convergence on energy requested: 1.00D-06
          Convergence on density requested: 1.00D-05
          Convergence on gradient requested: 5.00D-04

              XC Information
              --------------
          PerdewBurkeErnzerhof Exchange Functional  1.000          

             Grid Information
             ----------------
          Grid used for XC integration:  medium    
          Radial quadrature: Mura-Knowles        
          Angular quadrature: Lebedev. 
          Tag              B.-S. Rad. Rad. Pts. Rad. Cut. Ang. Pts.
          ---              ---------- --------- --------- ---------
          N                   0.65       49           8.0       434
          Grid pruning is: on 
          Number of quadrature shells:    49
          Spatial weights used:  Erf1

          Convergence Information
          -----------------------
          Convergence aids based upon iterative change in 
          total energy or number of iterations. 
          Levelshifting, if invoked, occurs when the 
          HOMO/LUMO gap drops below (HL_TOL): 1.00D-02
          DIIS, if invoked, will attempt to extrapolate 
          using up to (NFOCK): 10 stored Fock matrices.

                    Damping( 0%)  Levelshifting(0.5)       DIIS
                  --------------- ------------------- ---------------
          dE  on:    start            ASAP                start   
          dE off:    2 iters         30 iters            30 iters 


      Screening Tolerance Information
      -------------------------------
          Density screening/tol_rho: 1.00D-10
          AO Gaussian exp screening on grid/accAOfunc:  14
          CD Gaussian exp screening on grid/accCDfunc:  20
          XC Gaussian exp screening on grid/accXCfunc:  20
          Schwarz screening/accCoul: 1.00D-08


 Loading old vectors from job with title :

N2 dft optimize


      Symmetry analysis of molecular orbitals - initial
      -------------------------------------------------

  Numbering of irreducible representations: 

     1 a1g         2 a1u         3 a2g         4 a2u         5 b1g     
     6 b1u         7 b2g         8 b2u         9 eg         10 eu      

  Orbital symmetries:

     1 a1g         2 a2u         3 a1g         4 a2u         5 eu      
     6 eu          7 a1g         8 eg          9 eg         10 a1g     
    11 a2u        12 eu         13 eu         14 a1g        15 eg      
    16 eg         17 a2u     

   Time after variat. SCF:      1.1
   Time prior to 1st pass:      1.1

 Integral file          = ./N2.aoints.0
 Record size in doubles =  65536        No. of integs per rec  =  43688
 Max. records in memory =      2        Max. records in file   = 185701
 No. of bits per label  =      8        No. of bits per value  =     64


 #quartets = 6.345D+03 #integrals = 5.603D+04 #direct =  0.0% #cached =100.0%


 Grid_pts file          = ./N2.gridpts.0
 Record size in doubles =  12289        No. of grid_pts per rec  =   3070
 Max. records in memory =      9        Max. recs in file   =    990331


           Memory utilization after 1st SCF pass: 
           Heap Space remaining (MW):       32.52            32524411
          Stack Space remaining (MW):       32.77            32767697

   convergence    iter        energy       DeltaE   RMS-Dens  Diis-err    time
 ---------------- ----- ----------------- --------- --------- ---------  ------
 d= 0,ls=0.0,diis     1   -108.9608522285 -1.32D+02  1.32D-04  8.20D-06     1.2
 d= 0,ls=0.0,diis     2   -108.9608530947 -8.66D-07  9.23D-05  2.78D-06     1.2
 d= 0,ls=0.0,diis     3   -108.9608534099 -3.15D-07  2.46D-05  2.31D-07     1.3
 d= 0,ls=0.0,diis     4   -108.9608534401 -3.02D-08  1.30D-06  4.15D-10     1.3


         Total DFT energy =     -108.960853440100
      One electron energy =     -192.986978773940
           Coulomb energy =       74.073864213750
    Exchange-Corr. energy =      -13.040417633008
 Nuclear repulsion energy =       22.992678753097

 Numeric. integr. density =       14.000000601667

     Total iterative time =      0.2s



                  Occupations of the irreducible representations
                  ----------------------------------------------

                     irrep           alpha         beta
                     --------     --------     --------
                     a1g               3.0          3.0
                     a1u               0.0          0.0
                     a2g               0.0          0.0
                     a2u               2.0          2.0
                     b1g               0.0          0.0
                     b1u               0.0          0.0
                     b2g               0.0          0.0
                     b2u               0.0          0.0
                     eg                0.0          0.0
                     eu                2.0          2.0


                       DFT Final Molecular Orbital Analysis
                       ------------------------------------

 Vector    1  Occ=2.000000D+00  E=-1.410443D+01  Symmetry=a1g
              MO Center=  0.0D+00,  0.0D+00,  1.7D-16, r^2= 3.4D-01
   Bfn.  Coefficient  Atom+Function         Bfn.  Coefficient  Atom+Function  
  ----- ------------  ---------------      ----- ------------  ---------------
     1      0.701627  1 N  s                 20      0.701627  2 N  s          

 Vector    2  Occ=2.000000D+00  E=-1.410347D+01  Symmetry=a2u
              MO Center= -2.2D-18,  1.0D-19, -2.2D-16, r^2= 3.4D-01
   Bfn.  Coefficient  Atom+Function         Bfn.  Coefficient  Atom+Function  
  ----- ------------  ---------------      ----- ------------  ---------------
     1      0.701684  1 N  s                 20     -0.701684  2 N  s          

 Vector    3  Occ=2.000000D+00  E=-9.893011D-01  Symmetry=a1g
              MO Center=  4.1D-40, -1.2D-40, -5.6D-17, r^2= 4.5D-01
   Bfn.  Coefficient  Atom+Function         Bfn.  Coefficient  Atom+Function  
  ----- ------------  ---------------      ----- ------------  ---------------
     2      0.336383  1 N  s                 21      0.336383  2 N  s          
     5      0.227864  1 N  pz                24     -0.227864  2 N  pz         
     6      0.219813  1 N  s                 25      0.219813  2 N  s          
     1     -0.160220  1 N  s                 20     -0.160220  2 N  s          

 Vector    4  Occ=2.000000D+00  E=-4.692046D-01  Symmetry=a2u
              MO Center= -3.9D-17, -4.4D-18,  5.1D-15, r^2= 1.3D+00
   Bfn.  Coefficient  Atom+Function         Bfn.  Coefficient  Atom+Function  
  ----- ------------  ---------------      ----- ------------  ---------------
     6      0.569562  1 N  s                 25     -0.569562  2 N  s          
     2      0.339089  1 N  s                 21     -0.339089  2 N  s          
    10     -0.277806  1 N  s                 29      0.277806  2 N  s          
     5     -0.205863  1 N  pz                24     -0.205863  2 N  pz         
     1     -0.153903  1 N  s                 20      0.153903  2 N  s          

 Vector    5  Occ=2.000000D+00  E=-3.829202D-01  Symmetry=eu
              MO Center=  5.2D-39, -8.1D-39, -1.4D-17, r^2= 9.3D-01
   Bfn.  Coefficient  Atom+Function         Bfn.  Coefficient  Atom+Function  
  ----- ------------  ---------------      ----- ------------  ---------------
     4      0.368599  1 N  py                23      0.368599  2 N  py         
     3     -0.272134  1 N  px                22     -0.272134  2 N  px         
     8      0.177662  1 N  py                27      0.177662  2 N  py         

 Vector    6  Occ=2.000000D+00  E=-3.829202D-01  Symmetry=eu
              MO Center= -1.1D-17, -7.2D-18,  1.7D-16, r^2= 9.3D-01
   Bfn.  Coefficient  Atom+Function         Bfn.  Coefficient  Atom+Function  
  ----- ------------  ---------------      ----- ------------  ---------------
     3      0.368599  1 N  px                22      0.368599  2 N  px         
     4      0.272134  1 N  py                23      0.272134  2 N  py         
     7      0.177662  1 N  px                26      0.177662  2 N  px         

 Vector    7  Occ=2.000000D+00  E=-3.438854D-01  Symmetry=a1g
              MO Center=  7.9D-21,  5.8D-21, -5.0D-15, r^2= 1.4D+00
   Bfn.  Coefficient  Atom+Function         Bfn.  Coefficient  Atom+Function  
  ----- ------------  ---------------      ----- ------------  ---------------
     5      0.456977  1 N  pz                24     -0.456977  2 N  pz         
     6     -0.257502  1 N  s                 25     -0.257502  2 N  s          
     9      0.175674  1 N  pz                28     -0.175674  2 N  pz         

 Vector    8  Occ=0.000000D+00  E=-5.334887D-02  Symmetry=eg
              MO Center=  6.3D-18,  2.9D-17,  2.2D-16, r^2= 1.6D+00
   Bfn.  Coefficient  Atom+Function         Bfn.  Coefficient  Atom+Function  
  ----- ------------  ---------------      ----- ------------  ---------------
     3      0.483954  1 N  px                22     -0.483954  2 N  px         
     7      0.409625  1 N  px                26     -0.409625  2 N  px         
    11      0.358884  1 N  px                30     -0.358884  2 N  px         

 Vector    9  Occ=0.000000D+00  E=-5.334887D-02  Symmetry=eg
              MO Center= -6.7D-18, -7.1D-18,  0.0D+00, r^2= 1.6D+00
   Bfn.  Coefficient  Atom+Function         Bfn.  Coefficient  Atom+Function  
  ----- ------------  ---------------      ----- ------------  ---------------
     4      0.483954  1 N  py                23     -0.483954  2 N  py         
     8      0.409625  1 N  py                27     -0.409625  2 N  py         
    12      0.358884  1 N  py                31     -0.358884  2 N  py         

 Vector   10  Occ=0.000000D+00  E= 5.817826D-02  Symmetry=a1g
              MO Center=  7.9D-18,  5.8D-18, -1.2D-16, r^2= 6.2D+00
   Bfn.  Coefficient  Atom+Function         Bfn.  Coefficient  Atom+Function  
  ----- ------------  ---------------      ----- ------------  ---------------
    10      0.891639  1 N  s                 29      0.891639  2 N  s          
     6     -0.676069  1 N  s                 25     -0.676069  2 N  s          
    13     -0.308320  1 N  pz                32      0.308320  2 N  pz         
     9      0.184310  1 N  pz                28     -0.184310  2 N  pz         

 Vector   11  Occ=0.000000D+00  E= 7.336946D-02  Symmetry=a2u
              MO Center= -4.3D-18,  2.1D-17,  0.0D+00, r^2= 9.2D+00
   Bfn.  Coefficient  Atom+Function         Bfn.  Coefficient  Atom+Function  
  ----- ------------  ---------------      ----- ------------  ---------------
    10     10.352142  1 N  s                 29    -10.352142  2 N  s          
    13      3.591237  1 N  pz                32      3.591237  2 N  pz         
     9     -0.206676  1 N  pz                28     -0.206676  2 N  pz         

 Vector   12  Occ=0.000000D+00  E= 8.636188D-02  Symmetry=eu
              MO Center= -7.1D-32, -4.3D-32, -3.5D-17, r^2= 6.7D+00
   Bfn.  Coefficient  Atom+Function         Bfn.  Coefficient  Atom+Function  
  ----- ------------  ---------------      ----- ------------  ---------------
    11      0.517694  1 N  px                30      0.517694  2 N  px         
    12      0.344085  1 N  py                31      0.344085  2 N  py         
     7     -0.183691  1 N  px                26     -0.183691  2 N  px         

 Vector   13  Occ=0.000000D+00  E= 8.636188D-02  Symmetry=eu
              MO Center= -3.1D-17,  4.2D-17, -7.6D-17, r^2= 6.7D+00
   Bfn.  Coefficient  Atom+Function         Bfn.  Coefficient  Atom+Function  
  ----- ------------  ---------------      ----- ------------  ---------------
    12      0.517694  1 N  py                31      0.517694  2 N  py         
    11     -0.344085  1 N  px                30     -0.344085  2 N  px         
     8     -0.183691  1 N  py                27     -0.183691  2 N  py         

 Vector   14  Occ=0.000000D+00  E= 1.361065D-01  Symmetry=a1g
              MO Center=  9.9D-18, -1.8D-17,  2.2D-14, r^2= 7.6D+00
   Bfn.  Coefficient  Atom+Function         Bfn.  Coefficient  Atom+Function  
  ----- ------------  ---------------      ----- ------------  ---------------
    13      1.509845  1 N  pz                32     -1.509845  2 N  pz         
     6     -0.426711  1 N  s                 25     -0.426711  2 N  s          

 Vector   15  Occ=0.000000D+00  E= 1.636178D-01  Symmetry=eg
              MO Center=  8.9D-23, -1.3D-22, -7.8D-16, r^2= 8.2D+00
   Bfn.  Coefficient  Atom+Function         Bfn.  Coefficient  Atom+Function  
[...]
          Convergence on energy requested: 1.00D-07
          Convergence on density requested: 1.00D-05
          Convergence on gradient requested: 5.00D-04

              XC Information
              --------------
          PerdewBurkeErnzerhof Exchange Functional  1.000          

             Grid Information
             ----------------
          Grid used for XC integration:  fine      
          Radial quadrature: Mura-Knowles        
          Angular quadrature: Lebedev. 
          Tag              B.-S. Rad. Rad. Pts. Rad. Cut. Ang. Pts.
          ---              ---------- --------- --------- ---------
          N                   0.65       70           6.0       590
          Grid pruning is: on 
          Number of quadrature shells:    70
          Spatial weights used:  Erf1

          Convergence Information
          -----------------------
          Convergence aids based upon iterative change in 
          total energy or number of iterations. 
          Levelshifting, if invoked, occurs when the 
          HOMO/LUMO gap drops below (HL_TOL): 1.00D-02
          DIIS, if invoked, will attempt to extrapolate 
          using up to (NFOCK): 10 stored Fock matrices.

                    Damping( 0%)  Levelshifting(0.5)       DIIS
                  --------------- ------------------- ---------------
          dE  on:    start            ASAP                start   
          dE off:    2 iters         30 iters            30 iters 


      Screening Tolerance Information
      -------------------------------
          Density screening/tol_rho: 1.00D-11
          AO Gaussian exp screening on grid/accAOfunc:  16
          CD Gaussian exp screening on grid/accCDfunc:  20
          XC Gaussian exp screening on grid/accXCfunc:  20
          Schwarz screening/accCoul: 1.00D-08


 !! nbf/nmo/basis-name mismatch 
           nbf=  26 nbf_file=  38
           nmo=  26nmo_file=  38
           basis="ao basis" basis_file="ao basis"

  Either an incorrect movecs file was specified, or linear dependence has changed,
  or the basis name was changed. 

 Loading old vectors from job with title :

N2 dft freq


  Load of old vectors failed.   Forcing atomic density guess


      Superposition of Atomic Density Guess
      -------------------------------------

 Sum of atomic energies:        -108.61335984

      Non-variational initial energy
      ------------------------------

 Total energy =    -109.019450
 1-e energy   =    -192.848247
 2-e energy   =      60.833123
 HOMO         =      -0.416218
 LUMO         =       0.017296


      Symmetry analysis of molecular orbitals - initial
      -------------------------------------------------

  Numbering of irreducible representations: 

     1 a1g         2 a1u         3 a2g         4 a2u         5 b1g     
     6 b1u         7 b2g         8 b2u         9 eg         10 eu      

  Orbital symmetries:

     1 a1g         2 a2u         3 a1g         4 a2u         5 eu      
     6 eu          7 a1g         8 eg          9 eg         10 a2u     
    11 a1g        12 eu         13 eu         14 a1g        15 eg      
    16 eg         17 a2u     

   Time after variat. SCF:     10.6
   Time prior to 1st pass:     10.6

 #quartets = 3.783D+03 #integrals = 1.301D+04 #direct =  0.0% #cached =100.0%


 Integral file          = ./N2.aoints.0
 Record size in doubles =  65536        No. of integs per rec  =  43688
 Max. records in memory =      2        Max. records in file   = 185699
 No. of bits per label  =      8        No. of bits per value  =     64


 Grid_pts file          = ./N2.gridpts.0
 Record size in doubles =  12289        No. of grid_pts per rec  =   3070
 Max. records in memory =     16        Max. recs in file   =    990321


           Memory utilization after 1st SCF pass: 
           Heap Space remaining (MW):       32.44            32438770
          Stack Space remaining (MW):       32.77            32767751

   convergence    iter        energy       DeltaE   RMS-Dens  Diis-err    time
 ---------------- ----- ----------------- --------- --------- ---------  ------
 d= 0,ls=0.0,diis     1   -108.9078039823 -1.32D+02  1.81D-02  5.03D-01    10.7
 d= 0,ls=0.0,diis     2   -108.9279083843 -2.01D-02  9.20D-03  9.74D-02    10.8
 d= 0,ls=0.0,diis     3   -108.9370764951 -9.17D-03  2.32D-03  9.54D-03    10.8
 d= 0,ls=0.0,diis     4   -108.9381095063 -1.03D-03  1.80D-04  7.40D-06    10.9
 d= 0,ls=0.0,diis     5   -108.9381102621 -7.56D-07  1.19D-05  1.87D-08    10.9
 d= 0,ls=0.0,diis     6   -108.9381102646 -2.56D-09  4.87D-07  1.83D-10    11.0


         Total DFT energy =     -108.938110264642
      One electron energy =     -193.052748527950
           Coulomb energy =       74.222042820763
    Exchange-Corr. energy =      -13.103077708502
 Nuclear repulsion energy =       22.995673151046

 Numeric. integr. density =       14.000000017094

     Total iterative time =      0.4s



                  Occupations of the irreducible representations
                  ----------------------------------------------

                     irrep           alpha         beta
                     --------     --------     --------
                     a1g               3.0          3.0
                     a1u               0.0          0.0
                     a2g               0.0          0.0
                     a2u               2.0          2.0
                     b1g               0.0          0.0
                     b1u               0.0          0.0
                     b2g               0.0          0.0
                     b2u               0.0          0.0
                     eg                0.0          0.0
                     eu                2.0          2.0


                       DFT Final Molecular Orbital Analysis
                       ------------------------------------

 Vector    1  Occ=2.000000D+00  E=-1.406738D+01  Symmetry=a1g
              MO Center=  0.0D+00,  0.0D+00, -3.5D-17, r^2= 3.4D-01
   Bfn.  Coefficient  Atom+Function         Bfn.  Coefficient  Atom+Function  
  ----- ------------  ---------------      ----- ------------  ---------------
     1      0.394224  1 N  s                 14      0.394224  2 N  s          
     2      0.329227  1 N  s                 15      0.329227  2 N  s          

 Vector    2  Occ=2.000000D+00  E=-1.406647D+01  Symmetry=a2u
              MO Center=  3.1D-19,  2.3D-19,  4.2D-17, r^2= 3.4D-01
   Bfn.  Coefficient  Atom+Function         Bfn.  Coefficient  Atom+Function  
  ----- ------------  ---------------      ----- ------------  ---------------
     1      0.394310  1 N  s                 14     -0.394310  2 N  s          
     2      0.328858  1 N  s                 15     -0.328858  2 N  s          

 Vector    3  Occ=2.000000D+00  E=-1.022219D+00  Symmetry=a1g
              MO Center= -4.2D-18,  1.0D-17, -1.4D-15, r^2= 4.3D-01
   Bfn.  Coefficient  Atom+Function         Bfn.  Coefficient  Atom+Function  
  ----- ------------  ---------------      ----- ------------  ---------------
     6      0.402774  1 N  s                 19      0.402774  2 N  s          
     9      0.164094  1 N  pz                22     -0.164094  2 N  pz         

 Vector    4  Occ=2.000000D+00  E=-4.500897D-01  Symmetry=a2u
              MO Center=  1.4D-31, -3.5D-32,  9.4D-16, r^2= 1.3D+00
   Bfn.  Coefficient  Atom+Function         Bfn.  Coefficient  Atom+Function  
  ----- ------------  ---------------      ----- ------------  ---------------
    10      0.538763  1 N  s                 23     -0.538763  2 N  s          
     6      0.412842  1 N  s                 19     -0.412842  2 N  s          

 Vector    5  Occ=2.000000D+00  E=-3.840961D-01  Symmetry=eu
              MO Center= -1.2D-17,  2.3D-18,  1.7D-16, r^2= 9.5D-01
   Bfn.  Coefficient  Atom+Function         Bfn.  Coefficient  Atom+Function  
  ----- ------------  ---------------      ----- ------------  ---------------
     7      0.310414  1 N  px                20      0.310414  2 N  px         
    11      0.220237  1 N  px                24      0.220237  2 N  px         
     3      0.205883  1 N  px                16      0.205883  2 N  px         

 Vector    6  Occ=2.000000D+00  E=-3.840961D-01  Symmetry=eu
              MO Center=  1.6D-18,  8.7D-18, -1.9D-15, r^2= 9.5D-01
   Bfn.  Coefficient  Atom+Function         Bfn.  Coefficient  Atom+Function  
  ----- ------------  ---------------      ----- ------------  ---------------
     8      0.310414  1 N  py                21      0.310414  2 N  py         
    12      0.220237  1 N  py                25      0.220237  2 N  py         
     4      0.205883  1 N  py                17      0.205883  2 N  py         

 Vector    7  Occ=2.000000D+00  E=-3.264597D-01  Symmetry=a1g
              MO Center= -1.1D-18, -1.6D-17, -8.3D-17, r^2= 1.3D+00
   Bfn.  Coefficient  Atom+Function         Bfn.  Coefficient  Atom+Function  
  ----- ------------  ---------------      ----- ------------  ---------------
    10      0.334343  1 N  s                 23      0.334343  2 N  s          
     9     -0.301854  1 N  pz                22      0.301854  2 N  pz         
     5     -0.217184  1 N  pz                18      0.217184  2 N  pz         
    13     -0.177098  1 N  pz                26      0.177098  2 N  pz         

 Vector    8  Occ=0.000000D+00  E=-4.608875D-02  Symmetry=eg
              MO Center=  9.5D-22, -6.7D-22,  1.2D-15, r^2= 1.2D+00
   Bfn.  Coefficient  Atom+Function         Bfn.  Coefficient  Atom+Function  
  ----- ------------  ---------------      ----- ------------  ---------------
    11      0.425700  1 N  px                24     -0.425700  2 N  px         
    12     -0.301366  1 N  py                25      0.301366  2 N  py         
     7      0.286591  1 N  px                20     -0.286591  2 N  px         
     8     -0.202886  1 N  py                21      0.202886  2 N  py         
     3      0.197692  1 N  px                16     -0.197692  2 N  px         

 Vector    9  Occ=0.000000D+00  E=-4.608875D-02  Symmetry=eg
              MO Center=  2.6D-21,  3.6D-21,  6.7D-16, r^2= 1.2D+00
   Bfn.  Coefficient  Atom+Function         Bfn.  Coefficient  Atom+Function  
  ----- ------------  ---------------      ----- ------------  ---------------
    12      0.425700  1 N  py                25     -0.425700  2 N  py         
    11      0.301366  1 N  px                24     -0.301366  2 N  px         
     8      0.286591  1 N  py                21     -0.286591  2 N  py         
     7      0.202886  1 N  px                20     -0.202886  2 N  px         
     4      0.197692  1 N  py                17     -0.197692  2 N  py         

 Vector   10  Occ=0.000000D+00  E= 3.741470D-01  Symmetry=a2u
              MO Center=  1.7D-21,  1.4D-21,  4.0D-15, r^2= 3.1D+00
   Bfn.  Coefficient  Atom+Function         Bfn.  Coefficient  Atom+Function  
  ----- ------------  ---------------      ----- ------------  ---------------
    10      3.643948  1 N  s                 23     -3.643948  2 N  s          
    13      2.459200  1 N  pz                26      2.459200  2 N  pz         
     6      0.310278  1 N  s                 19     -0.310278  2 N  s          

 Vector   11  Occ=0.000000D+00  E= 5.022913D-01  Symmetry=eu
              MO Center=  1.6D-17,  2.4D-17,  9.3D-16, r^2= 2.1D+00
   Bfn.  Coefficient  Atom+Function         Bfn.  Coefficient  Atom+Function  
  ----- ------------  ---------------      ----- ------------  ---------------
    12      0.570189  1 N  py                25      0.570189  2 N  py         
     8     -0.472532  1 N  py                21     -0.472532  2 N  py         
    11      0.382586  1 N  px                24      0.382586  2 N  px         
     7     -0.317061  1 N  px                20     -0.317061  2 N  px         

 Vector   12  Occ=0.000000D+00  E= 5.022913D-01  Symmetry=eu
              MO Center=  2.8D-24, -1.9D-24, -6.9D-17, r^2= 2.1D+00
   Bfn.  Coefficient  Atom+Function         Bfn.  Coefficient  Atom+Function  
  ----- ------------  ---------------      ----- ------------  ---------------
    11      0.570189  1 N  px                24      0.570189  2 N  px         
     7     -0.472532  1 N  px                20     -0.472532  2 N  px         
    12     -0.382586  1 N  py                25     -0.382586  2 N  py         
     8      0.317061  1 N  py                21      0.317061  2 N  py         

 Vector   13  Occ=0.000000D+00  E= 5.114971D-01  Symmetry=a1g
              MO Center= -8.7D-17, -1.1D-16, -1.1D-16, r^2= 2.6D+00
   Bfn.  Coefficient  Atom+Function         Bfn.  Coefficient  Atom+Function  
  ----- ------------  ---------------      ----- ------------  ---------------
    13      1.055079  1 N  pz                26     -1.055079  2 N  pz         
     9     -0.415164  1 N  pz                22      0.415164  2 N  pz         
     6     -0.399939  1 N  s                 19     -0.399939  2 N  s          

 Vector   14  Occ=0.000000D+00  E= 5.979866D-01  Symmetry=a1g
              MO Center=  7.0D-17,  9.2D-17,  8.4D-15, r^2= 2.0D+00
   Bfn.  Coefficient  Atom+Function         Bfn.  Coefficient  Atom+Function  
  ----- ------------  ---------------      ----- ------------  ---------------
     6      1.101054  1 N  s                 19      1.101054  2 N  s          
    10     -0.925629  1 N  s                 23     -0.925629  2 N  s          
     9     -0.202907  1 N  pz                22      0.202907  2 N  pz         
    13      0.189763  1 N  pz                26     -0.189763  2 N  pz         
     2     -0.161154  1 N  s                 15     -0.161154  2 N  s          

 Vector   15  Occ=0.000000D+00  E= 6.380832D-01  Symmetry=eg
              MO Center= -5.9D-26, -5.2D-27,  2.6D-15, r^2= 2.5D+00
   Bfn.  Coefficient  Atom+Function         Bfn.  Coefficient  Atom+Function  
  ----- ------------  ---------------      ----- ------------  ---------------
    11      1.301524  1 N  px                24     -1.301524  2 N  px         
     7     -0.583757  1 N  px                20      0.583757  2 N  px         
     3     -0.188780  1 N  px                16      0.188780  2 N  px         

 Vector   16  Occ=0.000000D+00  E= 6.380832D-01  Symmetry=eg
              MO Center=  3.3D-27, -3.8D-26, -3.4D-15, r^2= 2.5D+00
   Bfn.  Coefficient  Atom+Function         Bfn.  Coefficient  Atom+Function  
  ----- ------------  ---------------      ----- ------------  ---------------
    12      1.301524  1 N  py                25     -1.301524  2 N  py         
     8     -0.583757  1 N  py                21      0.583757  2 N  py         
     4     -0.188780  1 N  py                17      0.188780  2 N  py         

 Vector   17  Occ=0.000000D+00  E= 7.017780D-01  Symmetry=a2u
              MO Center=  2.9D-17,  1.8D-17, -6.0D-15, r^2= 1.4D+00
   Bfn.  Coefficient  Atom+Function         Bfn.  Coefficient  Atom+Function  
  ----- ------------  ---------------      ----- ------------  ---------------
    10      1.271951  1 N  s                 23     -1.271951  2 N  s          
     9      0.825455  1 N  pz                22      0.825455  2 N  pz         
     5      0.275622  1 N  pz                18      0.275622  2 N  pz         
     6     -0.205217  1 N  s                 19      0.205217  2 N  s          


 center of mass
 --------------
 x =   0.00000000 y =   0.00000000 z =   0.00000000

 moments of inertia (a.u.)
 ------------------
          31.790193388708           0.000000000000           0.000000000000
           0.000000000000          31.790193388708           0.000000000000
           0.000000000000           0.000000000000           0.000000000000

     Multipole analysis of the density
     ---------------------------------

     L   x y z        total         alpha         beta         nuclear
     -   - - -        -----         -----         ----         -------
     0   0 0 0     -0.000000     -7.000000     -7.000000     14.000000

     1   1 0 0      0.000000      0.000000      0.000000      0.000000
     1   0 1 0     -0.000000     -0.000000     -0.000000      0.000000
     1   0 0 1      0.000000      0.000000      0.000000      0.000000

     2   2 0 0     -7.594310     -3.797155     -3.797155      0.000000
     2   1 1 0     -0.000000     -0.000000     -0.000000      0.000000
     2   1 0 1     -0.000000     -0.000000     -0.000000      0.000000
     2   0 2 0     -7.594310     -3.797155     -3.797155      0.000000
     2   0 1 1      0.000000      0.000000      0.000000      0.000000
     2   0 0 2     -9.350846    -12.621229    -12.621229     15.891612


 Parallel integral file used       1 records with       0 large values


 Task  times  cpu:        0.4s     wall:        0.5s
 Summary of allocated global arrays
-----------------------------------
  No active global arrays



                         GA Statistics for process    0
                         ------------------------------

       create   destroy   get      put      acc     scatter   gather  read&inc
calls: 1431     1431     1.06e+05 2.97e+04 2.71e+04  182        0     1906     
number of processes/call 1.00e+00 1.00e+00 1.00e+00 1.00e+00 0.00e+00
bytes total:             1.09e+08 1.75e+07 6.30e+07 1.87e+06 0.00e+00 1.52e+04
bytes remote:            0.00e+00 0.00e+00 0.00e+00 0.00e+00 0.00e+00 0.00e+00
Max memory consumed for GA by this process: 723616 bytes
MA_summarize_allocated_blocks: starting scan ...
MA_summarize_allocated_blocks: scan completed: 0 heap blocks, 0 stack blocks
MA usage statistics:

	allocation statistics:
					      heap	     stack
					      ----	     -----
	current number of blocks	         0	         0
	maximum number of blocks	        26	        52
	current total bytes		         0	         0
	maximum total bytes		   8305456	  82741792
	maximum total K-bytes		      8306	     82742
	maximum total M-bytes		         9	        83


                                NWChem Input Module
                                -------------------





                                     CITATION
                                     --------
                Please cite the following reference when publishing
                           results obtained with NWChem:

                 M. Valiev, E.J. Bylaska, N. Govind, K. Kowalski,
              T.P. Straatsma, H.J.J. van Dam, D. Wang, J. Nieplocha,
                        E. Apra, T.L. Windus, W.A. de Jong
                 "NWChem: a comprehensive and scalable open-source
                  solution for large scale molecular simulations"
                      Comput. Phys. Commun. 181, 1477 (2010)
                           doi:10.1016/j.cpc.2010.04.018

                              AUTHORS & CONTRIBUTORS
                              ----------------------
          E. Apra, E. J. Bylaska, W. A. de Jong, N. Govind, K. Kowalski,
       T. P. Straatsma, M. Valiev, H. J. J. van Dam, D. Wang, T. L. Windus,
        J. Hammond, J. Autschbach, K. Bhaskaran-Nair, J. Brabec, K. Lopata,
     F. Aquino, S. Hirata, M. T. Hackler, J. Mullin, P. Nichols, R. Peverati,
    J. Pittner, Y. Zhao, P.-D. Fan, R. J. Harrison, M. Dupuis, D. Silverstein,
    D. M. A. Smith, J. Nieplocha, V. Tipparaju, M. Krishnan, B. E. Van Kuiken,
        A. Vazquez-Mayagoitia, L. Jensen, M. Swart, Q. Wu, T. Van Voorhis,
     A. A. Auer, M. Nooijen, L. D. Crosby, E. Brown, G. Cisneros, G. I. Fann,
     H. Fruchtl, J. Garza, K. Hirao, R. Kendall, J. A. Nichols, K. Tsemekhman,
      K. Wolinski, J. Anchell, D. Bernholdt, P. Borowski, T. Clark, D. Clerc,
      H. Dachsel, M. Deegan, K. Dyall, D. Elwood, E. Glendening, M. Gutowski,
      A. Hess, J. Jaffe, B. Johnson, J. Ju, R. Kobayashi, R. Kutteh, Z. Lin,
   R. Littlefield, X. Long, B. Meng, T. Nakajima, S. Niu, L. Pollack, M. Rosing,
   K. Glaesemann, G. Sandrone, M. Stave, H. Taylor, G. Thomas, J. H. van Lenthe,
                                A. Wong, Z. Zhang.

 Total times  cpu:       11.0s     wall:       11.6s
