 argument  1 = N2.nw
                                         
                                         


              Northwest Computational Chemistry Package (NWChem) 6.3
              ------------------------------------------------------


                    Environmental Molecular Sciences Laboratory
                       Pacific Northwest National Laboratory
                                Richland, WA 99352

                              Copyright (c) 1994-2012
                       Pacific Northwest National Laboratory
                            Battelle Memorial Institute

             NWChem is an open-source computational chemistry package
                        distributed under the terms of the
                      Educational Community License (ECL) 2.0
             A copy of the license is included with this distribution
                              in the LICENSE.TXT file

                                  ACKNOWLEDGMENT
                                  --------------

            This software and its documentation were developed at the
            EMSL at Pacific Northwest National Laboratory, a multiprogram
            national laboratory, operated for the U.S. Department of Energy
            by Battelle under Contract Number DE-AC05-76RL01830. Support
            for this work was provided by the Department of Energy Office
            of Biological and Environmental Research, Office of Basic
            Energy Sciences, and the Office of Advanced Scientific Computing.


           Job information
           ---------------

    hostname        = ChensPro.local
    program         = nwchem
    date            = Wed Apr 15 10:31:10 2015

    compiled        = Sat_Jul_20_13:52:43_2013
    source          = /Users/shyuepingong/Software/nwchem-6.3
    nwchem branch   = 6.3
    nwchem revision = 24277
    ga revision     = 10379
    input           = N2.nw
    prefix          = N2.
    data base       = ./N2.db
    status          = startup
    nproc           =        1
    time left       =     -1s



           Memory information
           ------------------

    heap     =   32768001 doubles =    250.0 Mbytes
    stack    =   32768001 doubles =    250.0 Mbytes
    global   =   65536000 doubles =    500.0 Mbytes (distinct from heap & stack)
    total    =  131072002 doubles =   1000.0 Mbytes
    verify   = yes
    hardfail = no 


           Directory information
           ---------------------

  0 permanent = .
  0 scratch   = .




                                NWChem Input Module
                                -------------------



 Scaling coordinates for geometry "geometry" by  1.889725989
 (inverse scale =  0.529177249)

 ORDER OF PRIMARY AXIS IS BEING SET TO 4
 D4H symmetry detected

          ------
          auto-z
          ------


                             Geometry "geometry" -> ""
                             -------------------------

 Output coordinates in angstroms (scale by  1.889725989 to convert to a.u.)

  No.       Tag          Charge          X              Y              Z
 ---- ---------------- ---------- -------------- -------------- --------------
    1 N                    7.0000     0.00000000     0.00000000    -0.55000000
    2 N                    7.0000     0.00000000     0.00000000     0.55000000

      Atomic Mass 
      ----------- 

      N                 14.003070


 Effective nuclear repulsion energy (a.u.)      23.5724410918

            Nuclear Dipole moment (a.u.) 
            ----------------------------
        X                 Y               Z
 ---------------- ---------------- ----------------
     0.0000000000     0.0000000000     0.0000000000

      Symmetry information
      --------------------

 Group name             D4h       
 Group number             28
 Group order              16
 No. of unique centers     1

      Symmetry unique atoms

     1



                                Z-matrix (autoz)
                                -------- 

 Units are Angstrom for bonds and degrees for angles

      Type          Name      I     J     K     L     M      Value
      ----------- --------  ----- ----- ----- ----- ----- ----------
    1 Stretch                  1     2                       1.10000


            XYZ format geometry
            -------------------
     2
 geometry
 N                     0.00000000     0.00000000    -0.55000000
 N                     0.00000000     0.00000000     0.55000000

 ==============================================================================
                                internuclear distances
 ------------------------------------------------------------------------------
       center one      |      center two      | atomic units |  angstroms
 ------------------------------------------------------------------------------
    2 N                |   1 N                |     2.07870  |     1.10000
 ------------------------------------------------------------------------------
                         number of included internuclear distances:          1
 ==============================================================================



                                  N2 dft optimize
                                  ---------------
  library name resolved from: environment
  library file name is: </Users/chenzheng/Google Drive/nano266/resources/nwchem_basis/>
  
                      Basis "ao basis" -> "" (cartesian)
                      -----
  N (Nitrogen)
  ------------
            Exponent  Coefficients 
       -------------- ---------------------------------------------------------
  1 S  4.17351100E+03  0.001835
  1 S  6.27457900E+02  0.013995
  1 S  1.42902100E+02  0.068587
  1 S  4.02343300E+01  0.232241
  1 S  1.28202100E+01  0.469070
  1 S  4.39043700E+00  0.360455

  2 S  1.16263580E+01 -0.114961
  2 S  2.71628000E+00 -0.169118
  2 S  7.72218000E-01  1.145852

  3 P  1.16263580E+01  0.067580
  3 P  2.71628000E+00  0.323907
  3 P  7.72218000E-01  0.740895

  4 S  2.12031300E-01  1.000000

  5 P  2.12031300E-01  1.000000

  6 S  6.39000000E-02  1.000000

  7 P  6.39000000E-02  1.000000

  8 D  8.00000000E-01  1.000000



 Summary of "ao basis" -> "" (cartesian)
 ------------------------------------------------------------------------------
       Tag                 Description            Shells   Functions and Types
 ---------------- ------------------------------  ------  ---------------------
 N                          6-31+G*                  8       19   4s3p1d


  xc_inp: hfexch multiplicative factor not found.


                           NWChem Geometry Optimization
                           ----------------------------




                                  N2 dft optimize


 maximum gradient threshold         (gmax) =   0.000450
 rms gradient threshold             (grms) =   0.000300
 maximum cartesian step threshold   (xmax) =   0.001800
 rms cartesian step threshold       (xrms) =   0.001200
 fixed trust radius                (trust) =   0.300000
 maximum step size to saddle      (sadstp) =   0.100000
 energy precision                  (eprec) =   5.0D-06
 maximum number of steps          (nptopt) =   20
 initial hessian option           (inhess) =    0
 line search option               (linopt) =    1
 hessian update option            (modupd) =    1
 saddle point option              (modsad) =    0
 initial eigen-mode to follow     (moddir) =    0
 initial variable to follow       (vardir) =    0
 follow first negative mode     (firstneg) =    T
 apply conjugacy                    (opcg) =    F
 source of zmatrix                         =   autoz   


          -------------------
          Energy Minimization
          -------------------


 Names of Z-matrix variables 
    1         

 Variables with the same non-blank name are constrained to be equal


 Using diagonal initial Hessian 
 Scaling for Hessian diagonals: bonds = 1.00  angles = 0.25  torsions = 0.10

          --------
          Step   0
          --------


                         Geometry "geometry" -> "geometry"
                         ---------------------------------

 Output coordinates in angstroms (scale by  1.889725989 to convert to a.u.)

  No.       Tag          Charge          X              Y              Z
 ---- ---------------- ---------- -------------- -------------- --------------
    1 N                    7.0000     0.00000000     0.00000000    -0.55000000
    2 N                    7.0000     0.00000000     0.00000000     0.55000000

      Atomic Mass 
      ----------- 

      N                 14.003070


 Effective nuclear repulsion energy (a.u.)      23.5724410918

            Nuclear Dipole moment (a.u.) 
            ----------------------------
        X                 Y               Z
 ---------------- ---------------- ----------------
     0.0000000000     0.0000000000     0.0000000000

      Symmetry information
      --------------------

 Group name             D4h       
 Group number             28
 Group order              16
 No. of unique centers     1

      Symmetry unique atoms

     1


                                 NWChem DFT Module
                                 -----------------


                                  N2 dft optimize


  Caching 1-el integrals 

            General Information
            -------------------
          SCF calculation type: DFT
          Wavefunction type:  closed shell.
          No. of atoms     :     2
          No. of electrons :    14
           Alpha electrons :     7
            Beta electrons :     7
          Charge           :     0
          Spin multiplicity:     1
          Use of symmetry is: on ; symmetry adaption is: on 
          Maximum number of iterations:  30
          AO basis - number of functions:    38
                     number of shells:    16
          Convergence on energy requested: 1.00D-06
          Convergence on density requested: 1.00D-05
          Convergence on gradient requested: 5.00D-04

              XC Information
              --------------
                     Hartree-Fock (Exact) Exchange  1.000          

          Convergence Information
          -----------------------
          Convergence aids based upon iterative change in 
          total energy or number of iterations. 
          Levelshifting, if invoked, occurs when the 
          HOMO/LUMO gap drops below (HL_TOL): 1.00D-02
          DIIS, if invoked, will attempt to extrapolate 
          using up to (NFOCK): 10 stored Fock matrices.

                    Damping( 0%)  Levelshifting(0.5)       DIIS
                  --------------- ------------------- ---------------
          dE  on:    start            ASAP                start   
          dE off:    2 iters         30 iters            30 iters 


      Screening Tolerance Information
      -------------------------------
          Density screening/tol_rho: 1.00D-10
          AO Gaussian exp screening on grid/accAOfunc:  14
          CD Gaussian exp screening on grid/accCDfunc:  20
          XC Gaussian exp screening on grid/accXCfunc:  20
          Schwarz screening/accCoul: 1.00D-08


      Superposition of Atomic Density Guess
      -------------------------------------

 Sum of atomic energies:        -108.59128415

      Non-variational initial energy
      ------------------------------

 Total energy =    -109.086212
 1-e energy   =    -193.626428
 2-e energy   =      60.967775
 HOMO         =      -0.432196
 LUMO         =       0.010758


      Symmetry analysis of molecular orbitals - initial
      -------------------------------------------------


 !! scf_movecs_sym_adapt:    4 vectors were symmetry contaminated

  Symmetry fudging

 !! scf_movecs_sym_adapt:    4 vectors were symmetry contaminated

  Numbering of irreducible representations: 

     1 a1g         2 a1u         3 a2g         4 a2u         5 b1g     
     6 b1u         7 b2g         8 b2u         9 eg         10 eu      

  Orbital symmetries:

     1 a1g         2 a2u         3 a1g         4 a2u         5 eu      
     6 eu          7 a1g         8 eg          9 eg         10 a2u     
    11 a1g        12 eu         13 eu         14 a1g        15 eg      
    16 eg         17 a2u     

   Time after variat. SCF:      0.1
   Time prior to 1st pass:      0.1

 Integral file          = ./N2.aoints.0
 Record size in doubles =  65536        No. of integs per rec  =  43688
 Max. records in memory =      2        Max. records in file   = 185834
 No. of bits per label  =      8        No. of bits per value  =     64


 #quartets = 6.345D+03 #integrals = 5.603D+04 #direct =  0.0% #cached =100.0%


 !! scf_movecs_sym_adapt:    4 vectors were symmetry contaminated

  Symmetry fudging

           Memory utilization after 1st SCF pass: 
           Heap Space remaining (MW):       32.64            32635042
          Stack Space remaining (MW):       32.77            32767697

   convergence    iter        energy       DeltaE   RMS-Dens  Diis-err    time
 ---------------- ----- ----------------- --------- --------- ---------  ------
 d= 0,ls=0.0,diis     1   -108.9333375198 -1.33D+02  8.58D-03  8.65D-02     0.2

 !! scf_movecs_sym_adapt:    4 vectors were symmetry contaminated

  Symmetry fudging

 !! scf_movecs_sym_adapt:    4 vectors were symmetry contaminated

 d= 0,ls=0.0,diis     2   -108.9446148648 -1.13D-02  3.00D-03  5.84D-03     0.2

 !! scf_movecs_sym_adapt:    4 vectors were symmetry contaminated

  Symmetry fudging

 !! scf_movecs_sym_adapt:    4 vectors were symmetry contaminated

 d= 0,ls=0.0,diis     3   -108.9453436166 -7.29D-04  1.05D-03  3.39D-04     0.2

 !! scf_movecs_sym_adapt:    4 vectors were symmetry contaminated

  Symmetry fudging

 !! scf_movecs_sym_adapt:    2 vectors were symmetry contaminated

 d= 0,ls=0.0,diis     4   -108.9454048203 -6.12D-05  2.29D-04  2.32D-06     0.2

 !! scf_movecs_sym_adapt:    4 vectors were symmetry contaminated

  Symmetry fudging

 !! scf_movecs_sym_adapt:    4 vectors were symmetry contaminated

 d= 0,ls=0.0,diis     5   -108.9454052189 -3.99D-07  2.73D-05  5.12D-08     0.2

 !! scf_movecs_sym_adapt:    4 vectors were symmetry contaminated

  Symmetry fudging

 !! scf_movecs_sym_adapt:    2 vectors were symmetry contaminated

 d= 0,ls=0.0,diis     6   -108.9454052315 -1.26D-08  2.79D-06  1.57D-09     0.2


         Total DFT energy =     -108.945405231463
      One electron energy =     -193.971045143834
           Coulomb energy =       74.524755623241
    Exchange-Corr. energy =      -13.071556802676
 Nuclear repulsion energy =       23.572441091805

 Numeric. integr. density =        0.000000000000

     Total iterative time =      0.1s



                  Occupations of the irreducible representations
                  ----------------------------------------------

                     irrep           alpha         beta
                     --------     --------     --------
                     a1g               3.0          3.0
                     a1u               0.0          0.0
                     a2g               0.0          0.0
                     a2u               2.0          2.0
                     b1g               0.0          0.0
                     b1u               0.0          0.0
                     b2g               0.0          0.0
                     b2u               0.0          0.0
                     eg                0.0          0.0
                     eu                2.0          2.0


                       DFT Final Molecular Orbital Analysis
                       ------------------------------------

 Vector    1  Occ=2.000000D+00  E=-1.570434D+01  Symmetry=a1g
              MO Center= -4.1D-21, -4.1D-21, -5.7D-15, r^2= 3.2D-01
   Bfn.  Coefficient  Atom+Function         Bfn.  Coefficient  Atom+Function  
  ----- ------------  ---------------      ----- ------------  ---------------
     1      0.703436  1 N  s                 20      0.703436  2 N  s          

 Vector    2  Occ=2.000000D+00  E=-1.570098D+01  Symmetry=a2u
              MO Center=  9.9D-20, -3.2D-20,  5.7D-15, r^2= 3.2D-01
   Bfn.  Coefficient  Atom+Function         Bfn.  Coefficient  Atom+Function  
  ----- ------------  ---------------      ----- ------------  ---------------
     1      0.704012  1 N  s                 20     -0.704012  2 N  s          

 Vector    3  Occ=2.000000D+00  E=-1.478665D+00  Symmetry=a1g
              MO Center=  2.4D-36,  2.4D-36, -4.2D-17, r^2= 4.4D-01
   Bfn.  Coefficient  Atom+Function         Bfn.  Coefficient  Atom+Function  
  ----- ------------  ---------------      ----- ------------  ---------------
     2      0.333614  1 N  s                 21      0.333614  2 N  s          
     5      0.219632  1 N  pz                24     -0.219632  2 N  pz         
     6      0.207599  1 N  s                 25      0.207599  2 N  s          
     1     -0.160598  1 N  s                 20     -0.160598  2 N  s          

 Vector    4  Occ=2.000000D+00  E=-7.817780D-01  Symmetry=a2u
              MO Center= -6.2D-20, -5.2D-20, -2.8D-17, r^2= 1.3D+00
   Bfn.  Coefficient  Atom+Function         Bfn.  Coefficient  Atom+Function  
  ----- ------------  ---------------      ----- ------------  ---------------
     6      0.515050  1 N  s                 25     -0.515050  2 N  s          
    10     -0.364040  1 N  s                 29      0.364040  2 N  s          
     2      0.332078  1 N  s                 21     -0.332078  2 N  s          
     5     -0.220606  1 N  pz                24     -0.220606  2 N  pz         

 Vector    5  Occ=2.000000D+00  E=-6.346753D-01  Symmetry=a1g
              MO Center=  2.1D-36,  2.1D-36,  5.6D-17, r^2= 1.3D+00
   Bfn.  Coefficient  Atom+Function         Bfn.  Coefficient  Atom+Function  
  ----- ------------  ---------------      ----- ------------  ---------------
     5      0.458354  1 N  pz                24     -0.458354  2 N  pz         
     6     -0.279791  1 N  s                 25     -0.279791  2 N  s          
     9      0.193296  1 N  pz                28     -0.193296  2 N  pz         

 Vector    6  Occ=2.000000D+00  E=-6.159412D-01  Symmetry=eu
              MO Center=  6.4D-17, -2.0D-17,  0.0D+00, r^2= 9.2D-01
   Bfn.  Coefficient  Atom+Function         Bfn.  Coefficient  Atom+Function  
  ----- ------------  ---------------      ----- ------------  ---------------
     3      0.413435  1 N  px                22      0.413435  2 N  px         
     7      0.232344  1 N  px                26      0.232344  2 N  px         

 Vector    7  Occ=2.000000D+00  E=-6.159412D-01  Symmetry=eu
              MO Center= -4.0D-19, -1.2D-18, -1.4D-16, r^2= 9.2D-01
   Bfn.  Coefficient  Atom+Function         Bfn.  Coefficient  Atom+Function  
  ----- ------------  ---------------      ----- ------------  ---------------
     4      0.413435  1 N  py                23      0.413435  2 N  py         
     8      0.232344  1 N  py                27      0.232344  2 N  py         

 Vector    8  Occ=0.000000D+00  E= 1.275548D-01  Symmetry=eg
              MO Center= -1.2D-17,  2.9D-19, -2.2D-16, r^2= 3.9D+00
   Bfn.  Coefficient  Atom+Function         Bfn.  Coefficient  Atom+Function  
  ----- ------------  ---------------      ----- ------------  ---------------
    12      1.142411  1 N  py                31     -1.142411  2 N  py         
     4      0.341024  1 N  py                23     -0.341024  2 N  py         
     8      0.322600  1 N  py                27     -0.322600  2 N  py         

 Vector    9  Occ=0.000000D+00  E= 1.275548D-01  Symmetry=eg
              MO Center= -2.1D-17,  5.5D-19, -3.3D-15, r^2= 3.9D+00
   Bfn.  Coefficient  Atom+Function         Bfn.  Coefficient  Atom+Function  
  ----- ------------  ---------------      ----- ------------  ---------------
    11      1.142411  1 N  px                30     -1.142411  2 N  px         
     3      0.341024  1 N  px                22     -0.341024  2 N  px         
     7      0.322600  1 N  px                26     -0.322600  2 N  px         

 Vector   10  Occ=0.000000D+00  E= 1.427702D-01  Symmetry=a2u
              MO Center=  4.1D-17,  1.4D-18, -5.2D-14, r^2= 1.0D+01
   Bfn.  Coefficient  Atom+Function         Bfn.  Coefficient  Atom+Function  
  ----- ------------  ---------------      ----- ------------  ---------------
    10     15.693892  1 N  s                 29    -15.693892  2 N  s          
    13      4.964971  1 N  pz                32      4.964971  2 N  pz         
     9     -0.379262  1 N  pz                28     -0.379262  2 N  pz         
     6     -0.334752  1 N  s                 25      0.334752  2 N  s          

 Vector   11  Occ=0.000000D+00  E= 1.460905D-01  Symmetry=a1g
              MO Center=  5.1D-18, -1.8D-18, -1.4D-14, r^2= 7.2D+00
   Bfn.  Coefficient  Atom+Function         Bfn.  Coefficient  Atom+Function  
  ----- ------------  ---------------      ----- ------------  ---------------
    10      0.899199  1 N  s                 29      0.899199  2 N  s          
     6     -0.637161  1 N  s                 25     -0.637161  2 N  s          
    13     -0.606153  1 N  pz                32      0.606153  2 N  pz         
     9      0.226626  1 N  pz                28     -0.226626  2 N  pz         

 Vector   12  Occ=0.000000D+00  E= 1.684364D-01  Symmetry=eu
              MO Center= -1.2D-19,  5.8D-20,  3.0D-15, r^2= 6.9D+00
   Bfn.  Coefficient  Atom+Function         Bfn.  Coefficient  Atom+Function  
  ----- ------------  ---------------      ----- ------------  ---------------
    11      0.641294  1 N  px                30      0.641294  2 N  px         
     7     -0.266730  1 N  px                26     -0.266730  2 N  px         

 Vector   13  Occ=0.000000D+00  E= 1.684364D-01  Symmetry=eu
              MO Center= -6.1D-19,  2.2D-18,  2.7D-15, r^2= 6.9D+00
   Bfn.  Coefficient  Atom+Function         Bfn.  Coefficient  Atom+Function  
  ----- ------------  ---------------      ----- ------------  ---------------
    12      0.641294  1 N  py                31      0.641294  2 N  py         
     8     -0.266730  1 N  py                27     -0.266730  2 N  py         

 Vector   14  Occ=0.000000D+00  E= 2.205869D-01  Symmetry=a1g
              MO Center= -4.7D-17,  2.4D-17, -5.8D-14, r^2= 7.0D+00
   Bfn.  Coefficient  Atom+Function         Bfn.  Coefficient  Atom+Function  
  ----- ------------  ---------------      ----- ------------  ---------------
    13      1.500566  1 N  pz                32     -1.500566  2 N  pz         
     6     -0.581527  1 N  s                 25     -0.581527  2 N  s          
    10      0.188557  1 N  s                 29      0.188557  2 N  s          

 Vector   15  Occ=0.000000D+00  E= 2.748590D-01  Symmetry=eg
              MO Center= -3.0D-21, -1.6D-19,  8.9D-16, r^2= 6.3D+00
   Bfn.  Coefficient  Atom+Function         Bfn.  Coefficient  Atom+Function  
  ----- ------------  ---------------      ----- ------------  ---------------
    11      1.963824  1 N  px                30     -1.963824  2 N  px         
     7     -0.715505  1 N  px                26      0.715505  2 N  px         
     3     -0.321473  1 N  px                22      0.321473  2 N  px         

 Vector   16  Occ=0.000000D+00  E= 2.748590D-01  Symmetry=eg
              MO Center= -1.1D-17, -3.4D-18, -2.4D-15, r^2= 6.3D+00
   Bfn.  Coefficient  Atom+Function         Bfn.  Coefficient  Atom+Function  
  ----- ------------  ---------------      ----- ------------  ---------------
    12      1.963824  1 N  py                31     -1.963824  2 N  py         
     8     -0.715505  1 N  py                27      0.715505  2 N  py         
     4     -0.321473  1 N  py                23      0.321473  2 N  py         

 Vector   17  Occ=0.000000D+00  E= 3.339610D-01  Symmetry=a2u
              MO Center=  1.2D-17,  8.8D-19, -8.9D-15, r^2= 8.3D+00
   Bfn.  Coefficient  Atom+Function         Bfn.  Coefficient  Atom+Function  
  ----- ------------  ---------------      ----- ------------  ---------------
    10     38.424189  1 N  s                 29    -38.424189  2 N  s          
    13     10.146500  1 N  pz                32     10.146500  2 N  pz         
     6     -0.884011  1 N  s                 25      0.884011  2 N  s          
     9      0.314087  1 N  pz                28      0.314087  2 N  pz         

 Vector   18  Occ=0.000000D+00  E= 7.066784D-01  Symmetry=a2u
              MO Center= -6.7D-18,  4.7D-19, -1.3D-15, r^2= 3.4D+00
   Bfn.  Coefficient  Atom+Function         Bfn.  Coefficient  Atom+Function  
  ----- ------------  ---------------      ----- ------------  ---------------
     6      4.894789  1 N  s                 25     -4.894789  2 N  s          
     9      3.292978  1 N  pz                28      3.292978  2 N  pz         
    10     -2.608560  1 N  s                 29      2.608560  2 N  s          
    13     -1.093941  1 N  pz                32     -1.093941  2 N  pz         
     5      0.193140  1 N  pz                24      0.193140  2 N  pz         


 center of mass
 --------------
 x =   0.00000000 y =   0.00000000 z =   0.00000000

 moments of inertia (a.u.)
 ------------------
          30.253547438217           0.000000000000           0.000000000000
           0.000000000000          30.253547438217           0.000000000000
           0.000000000000           0.000000000000           0.000000000000

     Multipole analysis of the density
     ---------------------------------

     L   x y z        total         alpha         beta         nuclear
     -   - - -        -----         -----         ----         -------
     0   0 0 0     -0.000000     -7.000000     -7.000000     14.000000

     1   1 0 0     -0.000000     -0.000000     -0.000000      0.000000
     1   0 1 0      0.000000      0.000000      0.000000      0.000000
     1   0 0 1      0.000000      0.000000      0.000000      0.000000

     2   2 0 0     -7.756976     -3.878488     -3.878488      0.000000
     2   1 1 0     -0.000000     -0.000000     -0.000000      0.000000
     2   1 0 1     -0.000000     -0.000000     -0.000000      0.000000
     2   0 2 0     -7.756976     -3.878488     -3.878488      0.000000
     2   0 1 1      0.000000      0.000000      0.000000      0.000000
     2   0 0 2     -8.817197    -11.970327    -11.970327     15.123457


 Parallel integral file used       2 records with       0 large values



                            NWChem DFT Gradient Module
                            --------------------------


                                  N2 dft optimize



  charge          =   0.00
  wavefunction    = closed shell

  Using symmetry


                         DFT ENERGY GRADIENTS

    atom               coordinates                        gradient
                 x          y          z           x          y          z
   1 N       0.000000   0.000000  -1.039349    0.000000   0.000000  -0.076779
   2 N       0.000000   0.000000   1.039349    0.000000   0.000000   0.076779

                 ----------------------------------------
                 |  Time  |  1-e(secs)   |  2-e(secs)   |
                 ----------------------------------------
                 |  CPU   |       0.00   |       0.13   |
                 ----------------------------------------
                 |  WALL  |       0.00   |       0.13   |
                 ----------------------------------------

@ Step       Energy      Delta E   Gmax     Grms     Xrms     Xmax   Walltime
@ ---- ---------------- -------- -------- -------- -------- -------- --------
@    0    -108.94540523  0.0D+00  0.07678  0.07678  0.00000  0.00000      0.4
                                                                    



                                Z-matrix (autoz)
                                -------- 

 Units are Angstrom for bonds and degrees for angles

      Type          Name      I     J     K     L     M      Value     Gradient
      ----------- --------  ----- ----- ----- ----- ----- ---------- ----------
    1 Stretch                  1     2                       1.10000    0.07678


                                 NWChem DFT Module
                                 -----------------


                                  N2 dft optimize


  Caching 1-el integrals 

            General Information
            -------------------
          SCF calculation type: DFT
          Wavefunction type:  closed shell.
          No. of atoms     :     2
          No. of electrons :    14
           Alpha electrons :     7
            Beta electrons :     7
          Charge           :     0
          Spin multiplicity:     1
          Use of symmetry is: on ; symmetry adaption is: on 
          Maximum number of iterations:  30
          AO basis - number of functions:    38
                     number of shells:    16
          Convergence on energy requested: 1.00D-06
          Convergence on density requested: 1.00D-05
          Convergence on gradient requested: 5.00D-04

              XC Information
              --------------
                     Hartree-Fock (Exact) Exchange  1.000          

          Convergence Information
          -----------------------
          Convergence aids based upon iterative change in 
          total energy or number of iterations. 
          Levelshifting, if invoked, occurs when the 
          HOMO/LUMO gap drops below (HL_TOL): 1.00D-02
          DIIS, if invoked, will attempt to extrapolate 
          using up to (NFOCK): 10 stored Fock matrices.

                    Damping( 0%)  Levelshifting(0.5)       DIIS
                  --------------- ------------------- ---------------
          dE  on:    start            ASAP                start   
          dE off:    2 iters         30 iters            30 iters 


      Screening Tolerance Information
      -------------------------------
          Density screening/tol_rho: 1.00D-10
          AO Gaussian exp screening on grid/accAOfunc:  14
          CD Gaussian exp screening on grid/accCDfunc:  20
          XC Gaussian exp screening on grid/accXCfunc:  20
          Schwarz screening/accCoul: 1.00D-08


 Loading old vectors from job with title :

N2 dft optimize


      Symmetry analysis of molecular orbitals - initial
      -------------------------------------------------

  Numbering of irreducible representations: 

     1 a1g         2 a1u         3 a2g         4 a2u         5 b1g     
     6 b1u         7 b2g         8 b2u         9 eg         10 eu      

  Orbital symmetries:

     1 a1g         2 a2u         3 a1g         4 a2u         5 a1g     
     6 eu          7 eu          8 eg          9 eg         10 a2u     
    11 a1g        12 eu         13 eu         14 a1g        15 eg      
    16 eg         17 a2u     

   Time after variat. SCF:      0.4
   Time prior to 1st pass:      0.4

 Integral file          = ./N2.aoints.0
 Record size in doubles =  65536        No. of integs per rec  =  43688
 Max. records in memory =      2        Max. records in file   = 185834
 No. of bits per label  =      8        No. of bits per value  =     64


 #quartets = 6.346D+03 #integrals = 5.603D+04 #direct =  0.0% #cached =100.0%


 !! scf_movecs_sym_adapt:    4 vectors were symmetry contaminated

  Symmetry fudging

           Memory utilization after 1st SCF pass: 
           Heap Space remaining (MW):       32.64            32635042
          Stack Space remaining (MW):       32.77            32767697

   convergence    iter        energy       DeltaE   RMS-Dens  Diis-err    time
 ---------------- ----- ----------------- --------- --------- ---------  ------
 d= 0,ls=0.0,diis     1   -108.9367460464 -1.34D+02  8.31D-03  2.69D-02     0.5

 !! scf_movecs_sym_adapt:    4 vectors were symmetry contaminated

  Symmetry fudging

 !! scf_movecs_sym_adapt:    2 vectors were symmetry contaminated

 d= 0,ls=0.0,diis     2   -108.9401152787 -3.37D-03  1.89D-03  1.97D-03     0.5

 !! scf_movecs_sym_adapt:    4 vectors were symmetry contaminated

  Symmetry fudging

 !! scf_movecs_sym_adapt:    2 vectors were symmetry contaminated

 d= 0,ls=0.0,diis     3   -108.9403226610 -2.07D-04  7.17D-04  7.65D-05     0.5

 !! scf_movecs_sym_adapt:    4 vectors were symmetry contaminated

  Symmetry fudging

 !! scf_movecs_sym_adapt:    2 vectors were symmetry contaminated

 d= 0,ls=0.0,diis     4   -108.9403379970 -1.53D-05  2.29D-04  8.40D-07     0.6

 !! scf_movecs_sym_adapt:    4 vectors were symmetry contaminated

  Symmetry fudging

 !! scf_movecs_sym_adapt:    4 vectors were symmetry contaminated

 d= 0,ls=0.0,diis     5   -108.9403382497 -2.53D-07  1.21D-05  1.60D-08     0.6

 !! scf_movecs_sym_adapt:    4 vectors were symmetry contaminated

  Symmetry fudging
 d= 0,ls=0.0,diis     6   -108.9403382544 -4.71D-09  3.43D-06  1.49D-10     0.6


         Total DFT energy =     -108.940338254404
      One electron energy =     -196.730699515359
           Coulomb energy =       75.960834262079
    Exchange-Corr. energy =      -13.174286846104
 Nuclear repulsion energy =       25.003813844980

 Numeric. integr. density =        0.000000000000

     Total iterative time =      0.2s



                  Occupations of the irreducible representations
                  ----------------------------------------------

                     irrep           alpha         beta
                     --------     --------     --------
                     a1g               3.0          3.0
                     a1u               0.0          0.0
                     a2g               0.0          0.0
                     a2u               2.0          2.0
                     b1g               0.0          0.0
                     b1u               0.0          0.0
                     b2g               0.0          0.0
                     b2u               0.0          0.0
                     eg                0.0          0.0
                     eu                2.0          2.0


                       DFT Final Molecular Orbital Analysis
                       ------------------------------------

 Vector    1  Occ=2.000000D+00  E=-1.568489D+01  Symmetry=a1g
              MO Center= -2.9D-21, -1.4D-21,  3.8D-15, r^2= 2.9D-01
   Bfn.  Coefficient  Atom+Function         Bfn.  Coefficient  Atom+Function  
  ----- ------------  ---------------      ----- ------------  ---------------
     1      0.703184  1 N  s                 20      0.703184  2 N  s          

 Vector    2  Occ=2.000000D+00  E=-1.567990D+01  Symmetry=a2u
              MO Center= -2.2D-18, -1.3D-19, -3.5D-15, r^2= 2.9D-01
   Bfn.  Coefficient  Atom+Function         Bfn.  Coefficient  Atom+Function  
  ----- ------------  ---------------      ----- ------------  ---------------
     1      0.704083  1 N  s                 20     -0.704083  2 N  s          

 Vector    3  Occ=2.000000D+00  E=-1.525542D+00  Symmetry=a1g
              MO Center= -2.6D-20, -1.6D-20,  0.0D+00, r^2= 4.0D-01
   Bfn.  Coefficient  Atom+Function         Bfn.  Coefficient  Atom+Function  
  ----- ------------  ---------------      ----- ------------  ---------------
     2      0.331374  1 N  s                 21      0.331374  2 N  s          
     5      0.234424  1 N  pz                24     -0.234424  2 N  pz         
     6      0.193758  1 N  s                 25      0.193758  2 N  s          
     1     -0.166743  1 N  s                 20     -0.166743  2 N  s          

 Vector    4  Occ=2.000000D+00  E=-7.605994D-01  Symmetry=a2u
              MO Center=  6.6D-20,  1.2D-19,  2.5D-16, r^2= 1.3D+00
   Bfn.  Coefficient  Atom+Function         Bfn.  Coefficient  Atom+Function  
  ----- ------------  ---------------      ----- ------------  ---------------
     6      0.527183  1 N  s                 25     -0.527183  2 N  s          
    10     -0.404789  1 N  s                 29      0.404789  2 N  s          
     2      0.321991  1 N  s                 21     -0.321991  2 N  s          
     5     -0.231724  1 N  pz                24     -0.231724  2 N  pz         

 Vector    5  Occ=2.000000D+00  E=-6.443220D-01  Symmetry=eu
              MO Center=  1.2D-19, -3.3D-19,  2.8D-17, r^2= 8.6D-01
   Bfn.  Coefficient  Atom+Function         Bfn.  Coefficient  Atom+Function  
  ----- ------------  ---------------      ----- ------------  ---------------
     3      0.437163  1 N  px                22      0.437163  2 N  px         
     7      0.229722  1 N  px                26      0.229722  2 N  px         

 Vector    6  Occ=2.000000D+00  E=-6.443220D-01  Symmetry=eu
              MO Center= -2.3D-20, -3.2D-19,  2.8D-17, r^2= 8.6D-01
   Bfn.  Coefficient  Atom+Function         Bfn.  Coefficient  Atom+Function  
  ----- ------------  ---------------      ----- ------------  ---------------
     4      0.437163  1 N  py                23      0.437163  2 N  py         
     8      0.229722  1 N  py                27      0.229722  2 N  py         

 Vector    7  Occ=2.000000D+00  E=-6.392238D-01  Symmetry=a1g
              MO Center=  1.4D-19, -2.4D-20,  2.8D-17, r^2= 1.3D+00
   Bfn.  Coefficient  Atom+Function         Bfn.  Coefficient  Atom+Function  
  ----- ------------  ---------------      ----- ------------  ---------------
     5      0.457082  1 N  pz                24     -0.457082  2 N  pz         
     6     -0.287878  1 N  s                 25     -0.287878  2 N  s          
     9      0.184323  1 N  pz                28     -0.184323  2 N  pz         

 Vector    8  Occ=0.000000D+00  E= 1.436027D-01  Symmetry=a2u
              MO Center=  1.1D-34,  0.0D+00,  1.1D-14, r^2= 1.0D+01
   Bfn.  Coefficient  Atom+Function         Bfn.  Coefficient  Atom+Function  
  ----- ------------  ---------------      ----- ------------  ---------------
    10     19.114982  1 N  s                 29    -19.114982  2 N  s          
    13      5.573082  1 N  pz                32      5.573082  2 N  pz         
     6     -0.469608  1 N  s                 25      0.469608  2 N  s          
     9     -0.425400  1 N  pz                28     -0.425400  2 N  pz         

 Vector    9  Occ=0.000000D+00  E= 1.471477D-01  Symmetry=eg
              MO Center= -4.3D-19,  6.6D-19,  1.9D-15, r^2= 4.8D+00
   Bfn.  Coefficient  Atom+Function         Bfn.  Coefficient  Atom+Function  
  ----- ------------  ---------------      ----- ------------  ---------------
    12      1.107300  1 N  py                31     -1.107300  2 N  py         
    11     -0.923274  1 N  px                30      0.923274  2 N  px         
     4      0.226472  1 N  py                23     -0.226472  2 N  py         
     8      0.201351  1 N  py                27     -0.201351  2 N  py         
     3     -0.188834  1 N  px                22      0.188834  2 N  px         

 Vector   10  Occ=0.000000D+00  E= 1.471477D-01  Symmetry=eg
              MO Center= -2.5D-19, -3.0D-19,  5.9D-15, r^2= 4.8D+00
   Bfn.  Coefficient  Atom+Function         Bfn.  Coefficient  Atom+Function  
  ----- ------------  ---------------      ----- ------------  ---------------
    11      1.107300  1 N  px                30     -1.107300  2 N  px         
    12      0.923274  1 N  py                31     -0.923274  2 N  py         
     3      0.226472  1 N  px                22     -0.226472  2 N  px         
     7      0.201351  1 N  px                26     -0.201351  2 N  px         
     4      0.188834  1 N  py                23     -0.188834  2 N  py         

 Vector   11  Occ=0.000000D+00  E= 1.472458D-01  Symmetry=a1g
              MO Center= -8.3D-19,  6.3D-19, -8.4D-15, r^2= 7.2D+00
   Bfn.  Coefficient  Atom+Function         Bfn.  Coefficient  Atom+Function  
  ----- ------------  ---------------      ----- ------------  ---------------
    10      0.891996  1 N  s                 29      0.891996  2 N  s          
    13     -0.665351  1 N  pz                32      0.665351  2 N  pz         
     6     -0.623052  1 N  s                 25     -0.623052  2 N  s          
     9      0.238226  1 N  pz                28     -0.238226  2 N  pz         

 Vector   12  Occ=0.000000D+00  E= 1.663958D-01  Symmetry=eu
              MO Center=  6.3D-19, -2.7D-19, -6.4D-15, r^2= 6.9D+00
   Bfn.  Coefficient  Atom+Function         Bfn.  Coefficient  Atom+Function  
  ----- ------------  ---------------      ----- ------------  ---------------
    11      0.583838  1 N  px                30      0.583838  2 N  px         
    12     -0.252024  1 N  py                31     -0.252024  2 N  py         
     7     -0.232799  1 N  px                26     -0.232799  2 N  px         

 Vector   13  Occ=0.000000D+00  E= 1.663958D-01  Symmetry=eu
              MO Center= -4.2D-19, -1.7D-19, -3.8D-15, r^2= 6.9D+00
   Bfn.  Coefficient  Atom+Function         Bfn.  Coefficient  Atom+Function  
  ----- ------------  ---------------      ----- ------------  ---------------
    12      0.583838  1 N  py                31      0.583838  2 N  py         
    11      0.252024  1 N  px                30      0.252024  2 N  px         
     8     -0.232799  1 N  py                27     -0.232799  2 N  py         

 Vector   14  Occ=0.000000D+00  E= 2.218501D-01  Symmetry=a1g
              MO Center= -4.7D-20,  3.8D-19, -8.7D-15, r^2= 6.9D+00
   Bfn.  Coefficient  Atom+Function         Bfn.  Coefficient  Atom+Function  
  ----- ------------  ---------------      ----- ------------  ---------------
    13      1.568641  1 N  pz                32     -1.568641  2 N  pz         
     6     -0.602978  1 N  s                 25     -0.602978  2 N  s          
    10      0.206394  1 N  s                 29      0.206394  2 N  s          

 Vector   15  Occ=0.000000D+00  E= 2.930375D-01  Symmetry=eg
              MO Center= -1.1D-18,  3.5D-17,  0.0D+00, r^2= 5.5D+00
   Bfn.  Coefficient  Atom+Function         Bfn.  Coefficient  Atom+Function  
  ----- ------------  ---------------      ----- ------------  ---------------
    11      1.923731  1 N  px                30     -1.923731  2 N  px         
     7     -0.809266  1 N  px                26      0.809266  2 N  px         
     3     -0.356082  1 N  px                22      0.356082  2 N  px         

 Vector   16  Occ=0.000000D+00  E= 2.930375D-01  Symmetry=eg
              MO Center= -1.2D-27, -5.4D-26,  2.2D-15, r^2= 5.5D+00
   Bfn.  Coefficient  Atom+Function         Bfn.  Coefficient  Atom+Function  
  ----- ------------  ---------------      ----- ------------  ---------------
    12      1.923731  1 N  py                31     -1.923731  2 N  py         
     8     -0.809266  1 N  py                27      0.809266  2 N  py         
     4     -0.356082  1 N  py                23      0.356082  2 N  py         

 Vector   17  Occ=0.000000D+00  E= 3.352932D-01  Symmetry=a2u
              MO Center=  1.1D-18, -4.6D-20,  1.7D-13, r^2= 8.3D+00
   Bfn.  Coefficient  Atom+Function         Bfn.  Coefficient  Atom+Function  
  ----- ------------  ---------------      ----- ------------  ---------------
    10     45.599108  1 N  s                 29    -45.599108  2 N  s          
    13     11.350880  1 N  pz                32     11.350880  2 N  pz         
     6     -0.798913  1 N  s                 25      0.798913  2 N  s          
     9      0.359494  1 N  pz                28      0.359494  2 N  pz         

 Vector   18  Occ=0.000000D+00  E= 7.412239D-01  Symmetry=a2u
              MO Center=  7.0D-19, -4.3D-19, -4.9D-15, r^2= 3.6D+00
   Bfn.  Coefficient  Atom+Function         Bfn.  Coefficient  Atom+Function  
  ----- ------------  ---------------      ----- ------------  ---------------
     6      6.233642  1 N  s                 25     -6.233642  2 N  s          
     9      3.844241  1 N  pz                28      3.844241  2 N  pz         
    10     -2.402326  1 N  s                 29      2.402326  2 N  s          
    13     -1.020681  1 N  pz                32     -1.020681  2 N  pz         


 center of mass
 --------------
 x =   0.00000000 y =   0.00000000 z =   0.00000000

 moments of inertia (a.u.)
 ------------------
          26.888892224894           0.000000000000           0.000000000000
           0.000000000000          26.888892224894           0.000000000000
           0.000000000000           0.000000000000           0.000000000000

     Multipole analysis of the density
     ---------------------------------

     L   x y z        total         alpha         beta         nuclear
     -   - - -        -----         -----         ----         -------
     0   0 0 0     -0.000000     -7.000000     -7.000000     14.000000

     1   1 0 0      0.000000      0.000000      0.000000      0.000000
     1   0 1 0      0.000000      0.000000      0.000000      0.000000
     1   0 0 1     -0.000000     -0.000000     -0.000000      0.000000

     2   2 0 0     -7.574145     -3.787073     -3.787073      0.000000
     2   1 1 0      0.000000      0.000000      0.000000      0.000000
     2   1 0 1      0.000000      0.000000      0.000000      0.000000
     2   0 2 0     -7.574145     -3.787073     -3.787073      0.000000
     2   0 1 1      0.000000      0.000000      0.000000      0.000000
     2   0 0 2     -8.760407    -11.100953    -11.100953     13.441499


 Parallel integral file used       2 records with       0 large values

 Line search: 
     step= 1.00 grad=-9.1D-03 hess= 1.4D-02 energy=   -108.940338 mode=bracket 
 new step= 0.32                   predicted energy=   -108.946875

          --------
          Step   1
          --------


                         Geometry "geometry" -> "geometry"
                         ---------------------------------

 Output coordinates in angstroms (scale by  1.889725989 to convert to a.u.)

  No.       Tag          Charge          X              Y              Z
 ---- ---------------- ---------- -------------- -------------- --------------
    1 N                    7.0000     0.00000000     0.00000000    -0.53987338
    2 N                    7.0000     0.00000000     0.00000000     0.53987338

      Atomic Mass 
      ----------- 

      N                 14.003070


 Effective nuclear repulsion energy (a.u.)      24.0145985415

            Nuclear Dipole moment (a.u.) 
            ----------------------------
        X                 Y               Z
 ---------------- ---------------- ----------------
     0.0000000000     0.0000000000     0.0000000000

      Symmetry information
      --------------------

 Group name             D4h       
 Group number             28
 Group order              16
 No. of unique centers     1

      Symmetry unique atoms

     1


                                 NWChem DFT Module
                                 -----------------


                                  N2 dft optimize


  Caching 1-el integrals 

            General Information
            -------------------
          SCF calculation type: DFT
          Wavefunction type:  closed shell.
          No. of atoms     :     2
          No. of electrons :    14
           Alpha electrons :     7
            Beta electrons :     7
          Charge           :     0
          Spin multiplicity:     1
          Use of symmetry is: on ; symmetry adaption is: on 
          Maximum number of iterations:  30
          AO basis - number of functions:    38
                     number of shells:    16
          Convergence on energy requested: 1.00D-06
          Convergence on density requested: 1.00D-05
          Convergence on gradient requested: 5.00D-04

              XC Information
              --------------
                     Hartree-Fock (Exact) Exchange  1.000          

          Convergence Information
          -----------------------
          Convergence aids based upon iterative change in 
          total energy or number of iterations. 
          Levelshifting, if invoked, occurs when the 
          HOMO/LUMO gap drops below (HL_TOL): 1.00D-02
          DIIS, if invoked, will attempt to extrapolate 
          using up to (NFOCK): 10 stored Fock matrices.

                    Damping( 0%)  Levelshifting(0.5)       DIIS
                  --------------- ------------------- ---------------
          dE  on:    start            ASAP                start   
          dE off:    2 iters         30 iters            30 iters 


      Screening Tolerance Information
      -------------------------------
          Density screening/tol_rho: 1.00D-10
          AO Gaussian exp screening on grid/accAOfunc:  14
          CD Gaussian exp screening on grid/accCDfunc:  20
          XC Gaussian exp screening on grid/accXCfunc:  20
          Schwarz screening/accCoul: 1.00D-08


 Loading old vectors from job with title :

N2 dft optimize


      Symmetry analysis of molecular orbitals - initial
      -------------------------------------------------

  Numbering of irreducible representations: 

     1 a1g         2 a1u         3 a2g         4 a2u         5 b1g     
     6 b1u         7 b2g         8 b2u         9 eg         10 eu      

  Orbital symmetries:

     1 a1g         2 a2u         3 a1g         4 a2u         5 eu      
     6 eu          7 a1g         8 a2u         9 eg         10 eg      
    11 a1g        12 eu         13 eu         14 a1g        15 eg      
    16 eg         17 a2u     

   Time after variat. SCF:      0.6
   Time prior to 1st pass:      0.6

 Integral file          = ./N2.aoints.0
 Record size in doubles =  65536        No. of integs per rec  =  43688
 Max. records in memory =      2        Max. records in file   = 185834
 No. of bits per label  =      8        No. of bits per value  =     64


 #quartets = 6.345D+03 #integrals = 5.603D+04 #direct =  0.0% #cached =100.0%


 !! scf_movecs_sym_adapt:    4 vectors were symmetry contaminated

  Symmetry fudging

 !! scf_movecs_sym_adapt:    2 vectors were symmetry contaminated


           Memory utilization after 1st SCF pass: 
           Heap Space remaining (MW):       32.64            32635042
          Stack Space remaining (MW):       32.77            32767697

   convergence    iter        energy       DeltaE   RMS-Dens  Diis-err    time
 ---------------- ----- ----------------- --------- --------- ---------  ------
 d= 0,ls=0.0,diis     1   -108.9453265939 -1.33D+02  5.47D-03  1.23D-02     0.7

 !! scf_movecs_sym_adapt:    4 vectors were symmetry contaminated

  Symmetry fudging

 !! scf_movecs_sym_adapt:    2 vectors were symmetry contaminated

 d= 0,ls=0.0,diis     2   -108.9469122930 -1.59D-03  1.11D-03  8.99D-04     0.7

 !! scf_movecs_sym_adapt:    2 vectors were symmetry contaminated

  Symmetry fudging
 d= 0,ls=0.0,diis     3   -108.9470085194 -9.62D-05  4.17D-04  3.59D-05     0.7

 !! scf_movecs_sym_adapt:    4 vectors were symmetry contaminated

  Symmetry fudging
 d= 0,ls=0.0,diis     4   -108.9470158104 -7.29D-06  1.39D-04  3.81D-07     0.8

 !! scf_movecs_sym_adapt:    4 vectors were symmetry contaminated

  Symmetry fudging

 !! scf_movecs_sym_adapt:    2 vectors were symmetry contaminated

 d= 0,ls=0.0,diis     5   -108.9470159266 -1.16D-07  8.04D-06  6.78D-09     0.8


         Total DFT energy =     -108.947015926571
      One electron energy =     -194.830129942409
           Coulomb energy =       74.971961042003
    Exchange-Corr. energy =      -13.103445567699
 Nuclear repulsion energy =       24.014598541534

 Numeric. integr. density =        0.000000000000

     Total iterative time =      0.2s



                  Occupations of the irreducible representations
                  ----------------------------------------------

                     irrep           alpha         beta
                     --------     --------     --------
                     a1g               3.0          3.0
                     a1u               0.0          0.0
                     a2g               0.0          0.0
                     a2u               2.0          2.0
                     b1g               0.0          0.0
                     b1u               0.0          0.0
                     b2g               0.0          0.0
                     b2u               0.0          0.0
                     eg                0.0          0.0
                     eu                2.0          2.0


                       DFT Final Molecular Orbital Analysis
                       ------------------------------------

 Vector    1  Occ=2.000000D+00  E=-1.569803D+01  Symmetry=a1g
              MO Center=  0.0D+00,  0.0D+00, -1.7D-16, r^2= 3.1D-01
   Bfn.  Coefficient  Atom+Function         Bfn.  Coefficient  Atom+Function  
  ----- ------------  ---------------      ----- ------------  ---------------
     1      0.703366  1 N  s                 20      0.703366  2 N  s          

 Vector    2  Occ=2.000000D+00  E=-1.569423D+01  Symmetry=a2u
              MO Center=  5.6D-23,  7.4D-22,  3.9D-16, r^2= 3.1D-01
   Bfn.  Coefficient  Atom+Function         Bfn.  Coefficient  Atom+Function  
  ----- ------------  ---------------      ----- ------------  ---------------
     1      0.704029  1 N  s                 20     -0.704029  2 N  s          

 Vector    3  Occ=2.000000D+00  E=-1.493620D+00  Symmetry=a1g
              MO Center= -6.2D-19, -3.7D-20,  1.7D-15, r^2= 4.3D-01
   Bfn.  Coefficient  Atom+Function         Bfn.  Coefficient  Atom+Function  
  ----- ------------  ---------------      ----- ------------  ---------------
     2      0.333021  1 N  s                 21      0.333021  2 N  s          
     5      0.224421  1 N  pz                24     -0.224421  2 N  pz         
     6      0.203020  1 N  s                 25      0.203020  2 N  s          
     1     -0.162350  1 N  s                 20     -0.162350  2 N  s          

 Vector    4  Occ=2.000000D+00  E=-7.750618D-01  Symmetry=a2u
              MO Center=  1.1D-20, -1.8D-19, -1.7D-15, r^2= 1.3D+00
   Bfn.  Coefficient  Atom+Function         Bfn.  Coefficient  Atom+Function  
  ----- ------------  ---------------      ----- ------------  ---------------
     6      0.518610  1 N  s                 25     -0.518610  2 N  s          
    10     -0.376660  1 N  s                 29      0.376660  2 N  s          
     2      0.328860  1 N  s                 21     -0.328860  2 N  s          
     5     -0.224333  1 N  pz                24     -0.224333  2 N  pz         

 Vector    5  Occ=2.000000D+00  E=-6.362154D-01  Symmetry=a1g
              MO Center=  8.6D-18,  3.1D-17, -7.8D-16, r^2= 1.3D+00
   Bfn.  Coefficient  Atom+Function         Bfn.  Coefficient  Atom+Function  
  ----- ------------  ---------------      ----- ------------  ---------------
     5      0.457890  1 N  pz                24     -0.457890  2 N  pz         
     6     -0.282660  1 N  s                 25     -0.282660  2 N  s          
     9      0.190388  1 N  pz                28     -0.190388  2 N  pz         

 Vector    6  Occ=2.000000D+00  E=-6.246893D-01  Symmetry=eu
              MO Center= -1.5D-16, -5.0D-17, -5.6D-17, r^2= 9.0D-01
   Bfn.  Coefficient  Atom+Function         Bfn.  Coefficient  Atom+Function  
  ----- ------------  ---------------      ----- ------------  ---------------
     3      0.416176  1 N  px                22      0.416176  2 N  px         
     7      0.229186  1 N  px                26      0.229186  2 N  px         

 Vector    7  Occ=2.000000D+00  E=-6.246893D-01  Symmetry=eu
              MO Center=  9.1D-20, -7.6D-20,  2.8D-17, r^2= 9.0D-01
   Bfn.  Coefficient  Atom+Function         Bfn.  Coefficient  Atom+Function  
  ----- ------------  ---------------      ----- ------------  ---------------
     4      0.416176  1 N  py                23      0.416176  2 N  py         
     8      0.229186  1 N  py                27      0.229186  2 N  py         

 Vector    8  Occ=0.000000D+00  E= 1.341859D-01  Symmetry=eg
              MO Center=  4.0D-18,  2.1D-18, -4.4D-16, r^2= 4.2D+00
   Bfn.  Coefficient  Atom+Function         Bfn.  Coefficient  Atom+Function  
  ----- ------------  ---------------      ----- ------------  ---------------
    12      1.227638  1 N  py                31     -1.227638  2 N  py         
     4      0.325558  1 N  py                23     -0.325558  2 N  py         
     8      0.303947  1 N  py                27     -0.303947  2 N  py         

 Vector    9  Occ=0.000000D+00  E= 1.341859D-01  Symmetry=eg
              MO Center=  6.7D-26,  7.1D-27,  6.7D-16, r^2= 4.2D+00
   Bfn.  Coefficient  Atom+Function         Bfn.  Coefficient  Atom+Function  
  ----- ------------  ---------------      ----- ------------  ---------------
    11      1.227638  1 N  px                30     -1.227638  2 N  px         
     3      0.325558  1 N  px                22     -0.325558  2 N  px         
     7      0.303947  1 N  px                26     -0.303947  2 N  px         

 Vector   10  Occ=0.000000D+00  E= 1.430498D-01  Symmetry=a2u
              MO Center=  4.6D-20, -1.9D-19, -2.1D-14, r^2= 1.0D+01
   Bfn.  Coefficient  Atom+Function         Bfn.  Coefficient  Atom+Function  
  ----- ------------  ---------------      ----- ------------  ---------------
    10     16.705493  1 N  s                 29    -16.705493  2 N  s          
    13      5.148947  1 N  pz                32      5.148947  2 N  pz         
     9     -0.393715  1 N  pz                28     -0.393715  2 N  pz         
     6     -0.375338  1 N  s                 25      0.375338  2 N  s          

 Vector   11  Occ=0.000000D+00  E= 1.464795D-01  Symmetry=a1g
              MO Center=  6.9D-17,  2.1D-17, -2.3D-14, r^2= 7.2D+00
   Bfn.  Coefficient  Atom+Function         Bfn.  Coefficient  Atom+Function  
  ----- ------------  ---------------      ----- ------------  ---------------
    10      0.896945  1 N  s                 29      0.896945  2 N  s          
     6     -0.632797  1 N  s                 25     -0.632797  2 N  s          
    13     -0.624228  1 N  pz                32      0.624228  2 N  pz         
     9      0.230319  1 N  pz                28     -0.230319  2 N  pz         

 Vector   12  Occ=0.000000D+00  E= 1.677892D-01  Symmetry=eu
              MO Center= -1.0D-23, -4.7D-23,  6.7D-16, r^2= 6.9D+00
   Bfn.  Coefficient  Atom+Function         Bfn.  Coefficient  Atom+Function  
  ----- ------------  ---------------      ----- ------------  ---------------
    12      0.625088  1 N  py                31      0.625088  2 N  py         
     8     -0.256606  1 N  py                27     -0.256606  2 N  py         

 Vector   13  Occ=0.000000D+00  E= 1.677892D-01  Symmetry=eu
              MO Center= -7.7D-23,  1.7D-23, -4.2D-16, r^2= 6.9D+00
   Bfn.  Coefficient  Atom+Function         Bfn.  Coefficient  Atom+Function  
  ----- ------------  ---------------      ----- ------------  ---------------
    11      0.625088  1 N  px                30      0.625088  2 N  px         
     7     -0.256606  1 N  px                26     -0.256606  2 N  px         

 Vector   14  Occ=0.000000D+00  E= 2.209550D-01  Symmetry=a1g
              MO Center=  6.9D-17,  2.1D-17,  1.1D-14, r^2= 7.0D+00
   Bfn.  Coefficient  Atom+Function         Bfn.  Coefficient  Atom+Function  
  ----- ------------  ---------------      ----- ------------  ---------------
    13      1.521509  1 N  pz                32     -1.521509  2 N  pz         
     6     -0.588249  1 N  s                 25     -0.588249  2 N  s          
    10      0.194125  1 N  s                 29      0.194125  2 N  s          

 Vector   15  Occ=0.000000D+00  E= 2.800553D-01  Symmetry=eg
              MO Center= -6.2D-18,  2.1D-17, -3.9D-16, r^2= 6.1D+00
   Bfn.  Coefficient  Atom+Function         Bfn.  Coefficient  Atom+Function  
  ----- ------------  ---------------      ----- ------------  ---------------
    12      1.505804  1 N  py                31     -1.505804  2 N  py         
    11     -1.248340  1 N  px                30      1.248340  2 N  px         
     8     -0.573093  1 N  py                27      0.573093  2 N  py         
     7      0.475105  1 N  px                26     -0.475105  2 N  px         
     4     -0.256346  1 N  py                23      0.256346  2 N  py         

 Vector   16  Occ=0.000000D+00  E= 2.800553D-01  Symmetry=eg
              MO Center=  6.9D-19,  9.3D-18, -5.6D-17, r^2= 6.1D+00
   Bfn.  Coefficient  Atom+Function         Bfn.  Coefficient  Atom+Function  
  ----- ------------  ---------------      ----- ------------  ---------------
    11      1.505804  1 N  px                30     -1.505804  2 N  px         
    12      1.248340  1 N  py                31     -1.248340  2 N  py         
     7     -0.573093  1 N  px                26      0.573093  2 N  px         
     8     -0.475105  1 N  py                27      0.475105  2 N  py         
     3     -0.256346  1 N  px                22      0.256346  2 N  px         

 Vector   17  Occ=0.000000D+00  E= 3.343860D-01  Symmetry=a2u
              MO Center= -5.1D-18, -3.5D-17, -1.2D-13, r^2= 8.3D+00
   Bfn.  Coefficient  Atom+Function         Bfn.  Coefficient  Atom+Function  
  ----- ------------  ---------------      ----- ------------  ---------------
    10     40.553727  1 N  s                 29    -40.553727  2 N  s          
    13     10.511451  1 N  pz                32     10.511451  2 N  pz         
     6     -0.858988  1 N  s                 25      0.858988  2 N  s          
     9      0.328252  1 N  pz                28      0.328252  2 N  pz         

 Vector   18  Occ=0.000000D+00  E= 7.190566D-01  Symmetry=a2u
              MO Center=  9.9D-19,  7.3D-18,  2.7D-15, r^2= 3.5D+00
   Bfn.  Coefficient  Atom+Function         Bfn.  Coefficient  Atom+Function  
  ----- ------------  ---------------      ----- ------------  ---------------
     6      5.300772  1 N  s                 25     -5.300772  2 N  s          
     9      3.469978  1 N  pz                28      3.469978  2 N  pz         
    10     -2.557800  1 N  s                 29      2.557800  2 N  s          
    13     -1.074691  1 N  pz                32     -1.074691  2 N  pz         
     5      0.168253  1 N  pz                24      0.168253  2 N  pz         


 center of mass
 --------------
 x =   0.00000000 y =   0.00000000 z =   0.00000000

 moments of inertia (a.u.)
 ------------------
          29.149745176960           0.000000000000           0.000000000000
           0.000000000000          29.149745176960           0.000000000000
           0.000000000000           0.000000000000           0.000000000000

     Multipole analysis of the density
     ---------------------------------

     L   x y z        total         alpha         beta         nuclear
     -   - - -        -----         -----         ----         -------
     0   0 0 0     -0.000000     -7.000000     -7.000000     14.000000

     1   1 0 0      0.000000      0.000000      0.000000      0.000000
     1   0 1 0      0.000000      0.000000      0.000000      0.000000
     1   0 0 1      0.000000      0.000000      0.000000      0.000000

     2   2 0 0     -7.699147     -3.849574     -3.849574      0.000000
     2   1 1 0     -0.000000     -0.000000     -0.000000      0.000000
     2   1 0 1     -0.000000     -0.000000     -0.000000      0.000000
     2   0 2 0     -7.699147     -3.849574     -3.849574      0.000000
     2   0 1 1     -0.000000     -0.000000     -0.000000      0.000000
     2   0 0 2     -8.800552    -11.686115    -11.686115     14.571677


 Parallel integral file used       2 records with       0 large values



                            NWChem DFT Gradient Module
                            --------------------------


                                  N2 dft optimize



  charge          =   0.00
  wavefunction    = closed shell

  Using symmetry


                         DFT ENERGY GRADIENTS

    atom               coordinates                        gradient
                 x          y          z           x          y          z
   1 N       0.000000   0.000000  -1.020213    0.000000   0.000000  -0.005745
   2 N       0.000000   0.000000   1.020213    0.000000   0.000000   0.005745

                 ----------------------------------------
                 |  Time  |  1-e(secs)   |  2-e(secs)   |
                 ----------------------------------------
                 |  CPU   |       0.00   |       0.14   |
                 ----------------------------------------
                 |  WALL  |       0.00   |       0.15   |
                 ----------------------------------------

  Step       Energy      Delta E   Gmax     Grms     Xrms     Xmax   Walltime
  ---- ---------------- -------- -------- -------- -------- -------- --------
@    1    -108.94701593 -1.6D-03  0.00574  0.00574  0.01105  0.01914      1.0
                                                                    



                                Z-matrix (autoz)
                                -------- 

 Units are Angstrom for bonds and degrees for angles

      Type          Name      I     J     K     L     M      Value     Gradient
      ----------- --------  ----- ----- ----- ----- ----- ---------- ----------
    1 Stretch                  1     2                       1.07975    0.00574


                                 NWChem DFT Module
                                 -----------------


                                  N2 dft optimize


  Caching 1-el integrals 

            General Information
            -------------------
          SCF calculation type: DFT
          Wavefunction type:  closed shell.
          No. of atoms     :     2
          No. of electrons :    14
           Alpha electrons :     7
            Beta electrons :     7
          Charge           :     0
          Spin multiplicity:     1
          Use of symmetry is: on ; symmetry adaption is: on 
          Maximum number of iterations:  30
          AO basis - number of functions:    38
                     number of shells:    16
          Convergence on energy requested: 1.00D-06
          Convergence on density requested: 1.00D-05
          Convergence on gradient requested: 5.00D-04

              XC Information
              --------------
                     Hartree-Fock (Exact) Exchange  1.000          

          Convergence Information
          -----------------------
          Convergence aids based upon iterative change in 
          total energy or number of iterations. 
          Levelshifting, if invoked, occurs when the 
          HOMO/LUMO gap drops below (HL_TOL): 1.00D-02
          DIIS, if invoked, will attempt to extrapolate 
          using up to (NFOCK): 10 stored Fock matrices.

                    Damping( 0%)  Levelshifting(0.5)       DIIS
                  --------------- ------------------- ---------------
          dE  on:    start            ASAP                start   
          dE off:    2 iters         30 iters            30 iters 


      Screening Tolerance Information
      -------------------------------
          Density screening/tol_rho: 1.00D-10
          AO Gaussian exp screening on grid/accAOfunc:  14
          CD Gaussian exp screening on grid/accCDfunc:  20
          XC Gaussian exp screening on grid/accXCfunc:  20
          Schwarz screening/accCoul: 1.00D-08


 Loading old vectors from job with title :

N2 dft optimize


      Symmetry analysis of molecular orbitals - initial
      -------------------------------------------------

  Numbering of irreducible representations: 

     1 a1g         2 a1u         3 a2g         4 a2u         5 b1g     
     6 b1u         7 b2g         8 b2u         9 eg         10 eu      

  Orbital symmetries:

     1 a1g         2 a2u         3 a1g         4 a2u         5 a1g     
     6 eu          7 eu          8 eg          9 eg         10 a2u     
    11 a1g        12 eu         13 eu         14 a1g        15 eg      
    16 eg         17 a2u     

   Time after variat. SCF:      1.0
   Time prior to 1st pass:      1.0

 Integral file          = ./N2.aoints.0
 Record size in doubles =  65536        No. of integs per rec  =  43688
 Max. records in memory =      2        Max. records in file   = 185834
 No. of bits per label  =      8        No. of bits per value  =     64


 #quartets = 6.345D+03 #integrals = 5.603D+04 #direct =  0.0% #cached =100.0%


 !! scf_movecs_sym_adapt:    4 vectors were symmetry contaminated

  Symmetry fudging

           Memory utilization after 1st SCF pass: 
           Heap Space remaining (MW):       32.64            32635042
          Stack Space remaining (MW):       32.77            32767697

   convergence    iter        energy       DeltaE   RMS-Dens  Diis-err    time
 ---------------- ----- ----------------- --------- --------- ---------  ------
 d= 0,ls=0.0,diis     1   -108.9470217743 -1.33D+02  2.00D-04  1.74D-05     1.1

 !! scf_movecs_sym_adapt:    4 vectors were symmetry contaminated

  Symmetry fudging

 !! scf_movecs_sym_adapt:    4 vectors were symmetry contaminated

 d= 0,ls=0.0,diis     2   -108.9470240079 -2.23D-06  4.25D-05  1.27D-06     1.1

 !! scf_movecs_sym_adapt:    2 vectors were symmetry contaminated

  Symmetry fudging
 d= 0,ls=0.0,diis     3   -108.9470241453 -1.37D-07  1.60D-05  5.21D-08     1.1

 !! scf_movecs_sym_adapt:    2 vectors were symmetry contaminated

  Symmetry fudging

 !! scf_movecs_sym_adapt:    2 vectors were symmetry contaminated

 d= 0,ls=0.0,diis     4   -108.9470241559 -1.05D-08  5.23D-06  5.23D-10     1.1


         Total DFT energy =     -108.947024155871
      One electron energy =     -194.900799629506
           Coulomb energy =       75.008777486598
    Exchange-Corr. energy =      -13.106084899387
 Nuclear repulsion energy =       24.051082886425

 Numeric. integr. density =        0.000000000000

     Total iterative time =      0.1s



                  Occupations of the irreducible representations
                  ----------------------------------------------

                     irrep           alpha         beta
                     --------     --------     --------
                     a1g               3.0          3.0
                     a1u               0.0          0.0
                     a2g               0.0          0.0
                     a2u               2.0          2.0
                     b1g               0.0          0.0
                     b1u               0.0          0.0
                     b2g               0.0          0.0
                     b2u               0.0          0.0
                     eg                0.0          0.0
                     eu                2.0          2.0


                       DFT Final Molecular Orbital Analysis
                       ------------------------------------

 Vector    1  Occ=2.000000D+00  E=-1.569752D+01  Symmetry=a1g
              MO Center=  5.8D-19,  1.3D-18, -5.3D-15, r^2= 3.1D-01
   Bfn.  Coefficient  Atom+Function         Bfn.  Coefficient  Atom+Function  
  ----- ------------  ---------------      ----- ------------  ---------------
     1      0.703360  1 N  s                 20      0.703360  2 N  s          

 Vector    2  Occ=2.000000D+00  E=-1.569368D+01  Symmetry=a2u
              MO Center=  7.8D-20,  5.1D-20,  5.2D-15, r^2= 3.1D-01
   Bfn.  Coefficient  Atom+Function         Bfn.  Coefficient  Atom+Function  
  ----- ------------  ---------------      ----- ------------  ---------------
     1      0.704031  1 N  s                 20     -0.704031  2 N  s          

 Vector    3  Occ=2.000000D+00  E=-1.494836D+00  Symmetry=a1g
              MO Center= -3.7D-34, -8.1D-34, -5.6D-17, r^2= 4.3D-01
   Bfn.  Coefficient  Atom+Function         Bfn.  Coefficient  Atom+Function  
  ----- ------------  ---------------      ----- ------------  ---------------
     2      0.332967  1 N  s                 21      0.332967  2 N  s          
     5      0.224808  1 N  pz                24     -0.224808  2 N  pz         
     6      0.202655  1 N  s                 25      0.202655  2 N  s          
     1     -0.162500  1 N  s                 20     -0.162500  2 N  s          

 Vector    4  Occ=2.000000D+00  E=-7.745144D-01  Symmetry=a2u
              MO Center=  4.5D-18, -7.6D-18, -6.4D-16, r^2= 1.3D+00
   Bfn.  Coefficient  Atom+Function         Bfn.  Coefficient  Atom+Function  
  ----- ------------  ---------------      ----- ------------  ---------------
     6      0.518908  1 N  s                 25     -0.518908  2 N  s          
    10     -0.377687  1 N  s                 29      0.377687  2 N  s          
     2      0.328598  1 N  s                 21     -0.328598  2 N  s          
     5     -0.224630  1 N  pz                24     -0.224630  2 N  pz         

 Vector    5  Occ=2.000000D+00  E=-6.363386D-01  Symmetry=a1g
              MO Center=  9.0D-35,  2.5D-34,  5.3D-16, r^2= 1.3D+00
   Bfn.  Coefficient  Atom+Function         Bfn.  Coefficient  Atom+Function  
  ----- ------------  ---------------      ----- ------------  ---------------
     5      0.457856  1 N  pz                24     -0.457856  2 N  pz         
     6     -0.282882  1 N  s                 25     -0.282882  2 N  s          
     9      0.190152  1 N  pz                28     -0.190152  2 N  pz         

 Vector    6  Occ=2.000000D+00  E=-6.254110D-01  Symmetry=eu
              MO Center= -6.0D-25, -1.6D-25, -5.6D-17, r^2= 9.0D-01
   Bfn.  Coefficient  Atom+Function         Bfn.  Coefficient  Atom+Function  
  ----- ------------  ---------------      ----- ------------  ---------------
     3      0.422283  1 N  px                22      0.422283  2 N  px         
     7      0.232157  1 N  px                26      0.232157  2 N  px         

 Vector    7  Occ=2.000000D+00  E=-6.254110D-01  Symmetry=eu
              MO Center=  7.0D-19, -1.0D-18, -2.5D-16, r^2= 9.0D-01
   Bfn.  Coefficient  Atom+Function         Bfn.  Coefficient  Atom+Function  
  ----- ------------  ---------------      ----- ------------  ---------------
     4      0.422283  1 N  py                23      0.422283  2 N  py         
     8      0.232157  1 N  py                27      0.232157  2 N  py         

 Vector    8  Occ=0.000000D+00  E= 1.347102D-01  Symmetry=eg
              MO Center=  2.2D-17, -4.5D-17,  0.0D+00, r^2= 4.2D+00
   Bfn.  Coefficient  Atom+Function         Bfn.  Coefficient  Atom+Function  
  ----- ------------  ---------------      ----- ------------  ---------------
    11      1.098841  1 N  px                30     -1.098841  2 N  px         
    12     -0.579347  1 N  py                31      0.579347  2 N  py         
     3      0.288581  1 N  px                22     -0.288581  2 N  px         
     7      0.269072  1 N  px                26     -0.269072  2 N  px         
     4     -0.152150  1 N  py                23      0.152150  2 N  py         

 Vector    9  Occ=0.000000D+00  E= 1.347102D-01  Symmetry=eg
              MO Center=  1.0D-17,  7.2D-18, -5.6D-16, r^2= 4.2D+00
   Bfn.  Coefficient  Atom+Function         Bfn.  Coefficient  Atom+Function  
  ----- ------------  ---------------      ----- ------------  ---------------
    12      1.098841  1 N  py                31     -1.098841  2 N  py         
    11      0.579347  1 N  px                30     -0.579347  2 N  px         
     4      0.288581  1 N  py                23     -0.288581  2 N  py         
     8      0.269072  1 N  py                27     -0.269072  2 N  py         
     3      0.152150  1 N  px                22     -0.152150  2 N  px         

 Vector   10  Occ=0.000000D+00  E= 1.430718D-01  Symmetry=a2u
              MO Center= -4.1D-19, -3.2D-18,  3.6D-14, r^2= 1.0D+01
   Bfn.  Coefficient  Atom+Function         Bfn.  Coefficient  Atom+Function  
  ----- ------------  ---------------      ----- ------------  ---------------
    10     16.790769  1 N  s                 29    -16.790769  2 N  s          
    13      5.164288  1 N  pz                32      5.164288  2 N  pz         
     9     -0.394899  1 N  pz                28     -0.394899  2 N  pz         
     6     -0.378731  1 N  s                 25      0.378731  2 N  s          

 Vector   11  Occ=0.000000D+00  E= 1.465101D-01  Symmetry=a1g
              MO Center=  1.9D-19, -7.4D-19,  3.1D-15, r^2= 7.2D+00
   Bfn.  Coefficient  Atom+Function         Bfn.  Coefficient  Atom+Function  
  ----- ------------  ---------------      ----- ------------  ---------------
    10      0.896759  1 N  s                 29      0.896759  2 N  s          
     6     -0.632434  1 N  s                 25     -0.632434  2 N  s          
    13     -0.625734  1 N  pz                32      0.625734  2 N  pz         
     9      0.230618  1 N  pz                28     -0.230618  2 N  pz         

 Vector   12  Occ=0.000000D+00  E= 1.677368D-01  Symmetry=eu
              MO Center= -2.6D-17, -3.6D-17, -1.0D-15, r^2= 6.9D+00
   Bfn.  Coefficient  Atom+Function         Bfn.  Coefficient  Atom+Function  
  ----- ------------  ---------------      ----- ------------  ---------------
    12      0.552913  1 N  py                31      0.552913  2 N  py         
    11      0.322039  1 N  px                30      0.322039  2 N  px         
     8     -0.226733  1 N  py                27     -0.226733  2 N  py         

 Vector   13  Occ=0.000000D+00  E= 1.677368D-01  Symmetry=eu
              MO Center= -1.4D-17,  8.7D-18,  2.2D-15, r^2= 6.9D+00
   Bfn.  Coefficient  Atom+Function         Bfn.  Coefficient  Atom+Function  
  ----- ------------  ---------------      ----- ------------  ---------------
    11      0.552913  1 N  px                30      0.552913  2 N  px         
    12     -0.322039  1 N  py                31     -0.322039  2 N  py         
     7     -0.226733  1 N  px                26     -0.226733  2 N  px         

 Vector   14  Occ=0.000000D+00  E= 2.209863D-01  Symmetry=a1g
              MO Center=  1.4D-18,  1.5D-18,  6.7D-16, r^2= 7.0D+00
   Bfn.  Coefficient  Atom+Function         Bfn.  Coefficient  Atom+Function  
  ----- ------------  ---------------      ----- ------------  ---------------
    13      1.523238  1 N  pz                32     -1.523238  2 N  pz         
     6     -0.588803  1 N  s                 25     -0.588803  2 N  s          
    10      0.194586  1 N  s                 29      0.194586  2 N  s          

 Vector   15  Occ=0.000000D+00  E= 2.805016D-01  Symmetry=eg
              MO Center=  8.0D-24,  3.7D-25, -1.1D-15, r^2= 6.1D+00
   Bfn.  Coefficient  Atom+Function         Bfn.  Coefficient  Atom+Function  
  ----- ------------  ---------------      ----- ------------  ---------------
    11      1.953002  1 N  px                30     -1.953002  2 N  px         
     7     -0.746009  1 N  px                26      0.746009  2 N  px         
     3     -0.333543  1 N  px                22      0.333543  2 N  px         

 Vector   16  Occ=0.000000D+00  E= 2.805016D-01  Symmetry=eg
              MO Center=  2.0D-19, -1.7D-20,  1.3D-15, r^2= 6.1D+00
   Bfn.  Coefficient  Atom+Function         Bfn.  Coefficient  Atom+Function  
  ----- ------------  ---------------      ----- ------------  ---------------
    12      1.953002  1 N  py                31     -1.953002  2 N  py         
     8     -0.746009  1 N  py                27      0.746009  2 N  py         
     4     -0.333543  1 N  py                23      0.333543  2 N  py         

 Vector   17  Occ=0.000000D+00  E= 3.344206D-01  Symmetry=a2u
              MO Center=  5.3D-19,  3.3D-19,  2.8D-13, r^2= 8.3D+00
   Bfn.  Coefficient  Atom+Function         Bfn.  Coefficient  Atom+Function  
  ----- ------------  ---------------      ----- ------------  ---------------
    10     40.732858  1 N  s                 29    -40.732858  2 N  s          
    13     10.541845  1 N  pz                32     10.541845  2 N  pz         
     6     -0.856873  1 N  s                 25      0.856873  2 N  s          
     9      0.329414  1 N  pz                28      0.329414  2 N  pz         

 Vector   18  Occ=0.000000D+00  E= 7.200032D-01  Symmetry=a2u
[...]
          Convergence on density requested: 1.00D-05
          Convergence on gradient requested: 5.00D-04

              XC Information
              --------------
                     Hartree-Fock (Exact) Exchange  1.000          

          Convergence Information
          -----------------------
          Convergence aids based upon iterative change in 
          total energy or number of iterations. 
          Levelshifting, if invoked, occurs when the 
          HOMO/LUMO gap drops below (HL_TOL): 1.00D-02
          DIIS, if invoked, will attempt to extrapolate 
          using up to (NFOCK): 10 stored Fock matrices.

                    Damping( 0%)  Levelshifting(0.5)       DIIS
                  --------------- ------------------- ---------------
          dE  on:    start            ASAP                start   
          dE off:    2 iters         30 iters            30 iters 


      Screening Tolerance Information
      -------------------------------
          Density screening/tol_rho: 1.00D-11
          AO Gaussian exp screening on grid/accAOfunc:  16
          CD Gaussian exp screening on grid/accCDfunc:  20
          XC Gaussian exp screening on grid/accXCfunc:  20
          Schwarz screening/accCoul: 1.00D-08


 !! nbf/nmo/basis-name mismatch 
           nbf=  46 nbf_file=  38
           nmo=  46nmo_file=  38
           basis="ao basis" basis_file="ao basis"

  Either an incorrect movecs file was specified, or linear dependence has changed,
  or the basis name was changed. 

 Loading old vectors from job with title :

N2 dft freq


  Load of old vectors failed.   Forcing atomic density guess


      Superposition of Atomic Density Guess
      -------------------------------------

 Sum of atomic energies:        -108.61593604

      Non-variational initial energy
      ------------------------------

 Total energy =    -109.181426
 1-e energy   =    -194.588252
 2-e energy   =      61.358347
 HOMO         =      -0.437063
 LUMO         =       0.018823


      Symmetry analysis of molecular orbitals - initial
      -------------------------------------------------


 !! scf_movecs_sym_adapt:    4 vectors were symmetry contaminated

  Symmetry fudging

 !! scf_movecs_sym_adapt:    2 vectors were symmetry contaminated

  Numbering of irreducible representations: 

     1 a1g         2 a1u         3 a2g         4 a2u         5 b1g     
     6 b1u         7 b2g         8 b2u         9 eg         10 eu      

  Orbital symmetries:

     1 a1g         2 a2u         3 a1g         4 a2u         5 eu      
     6 eu          7 a1g         8 eg          9 eg         10 a2u     
    11 a1g        12 eu         13 eu         14 a1g        15 eg      
    16 eg         17 a2u     

   Time after variat. SCF:      3.2
   Time prior to 1st pass:      3.2

 Integral file          = ./N2.aoints.0
 Record size in doubles =  65536        No. of integs per rec  =  43688
 Max. records in memory =      3        Max. records in file   = 185834
 No. of bits per label  =      8        No. of bits per value  =     64


 #quartets = 1.511D+04 #integrals = 1.160D+05 #direct =  0.0% #cached =100.0%


           Memory utilization after 1st SCF pass: 
           Heap Space remaining (MW):       32.57            32569408
          Stack Space remaining (MW):       32.77            32767653

   convergence    iter        energy       DeltaE   RMS-Dens  Diis-err    time
 ---------------- ----- ----------------- --------- --------- ---------  ------
 d= 0,ls=0.0,diis     1   -108.9626489666 -1.33D+02  5.55D-03  8.40D-02     3.3
 d= 0,ls=0.0,diis     2   -108.9731607194 -1.05D-02  1.50D-03  6.26D-03     3.3
 d= 0,ls=0.0,diis     3   -108.9738506413 -6.90D-04  5.67D-04  3.72D-04     3.4
 d= 0,ls=0.0,diis     4   -108.9739091881 -5.85D-05  1.58D-04  3.80D-06     3.4
 d= 0,ls=0.0,diis     5   -108.9739097444 -5.56D-07  2.79D-05  7.63D-08     3.4
 d= 0,ls=0.0,diis     6   -108.9739097602 -1.58D-08  2.72D-06  2.13D-09     3.4


         Total DFT energy =     -108.973909760154
      One electron energy =     -195.014810895927
           Coulomb energy =       75.116001144928
    Exchange-Corr. energy =      -13.123579590826
 Nuclear repulsion energy =       24.048479581672

 Numeric. integr. density =        0.000000000000

     Total iterative time =      0.2s



                  Occupations of the irreducible representations
                  ----------------------------------------------

                     irrep           alpha         beta
                     --------     --------     --------
                     a1g               3.0          3.0
                     a1u               0.0          0.0
                     a2g               0.0          0.0
                     a2u               2.0          2.0
                     b1g               0.0          0.0
                     b1u               0.0          0.0
                     b2g               0.0          0.0
                     b2u               0.0          0.0
                     eg                0.0          0.0
                     eu                2.0          2.0


                       DFT Final Molecular Orbital Analysis
                       ------------------------------------

 Vector    1  Occ=2.000000D+00  E=-1.568235D+01  Symmetry=a1g
              MO Center= -1.0D-19, -3.1D-20, -3.0D-13, r^2= 3.1D-01
   Bfn.  Coefficient  Atom+Function         Bfn.  Coefficient  Atom+Function  
  ----- ------------  ---------------      ----- ------------  ---------------
     1      0.394251  1 N  s                 24      0.394251  2 N  s          
     2      0.330810  1 N  s                 25      0.330810  2 N  s          

 Vector    2  Occ=2.000000D+00  E=-1.567838D+01  Symmetry=a2u
              MO Center= -1.1D-19, -1.3D-20,  3.0D-13, r^2= 3.1D-01
   Bfn.  Coefficient  Atom+Function         Bfn.  Coefficient  Atom+Function  
  ----- ------------  ---------------      ----- ------------  ---------------
     1      0.394487  1 N  s                 24     -0.394487  2 N  s          
     2      0.331200  1 N  s                 25     -0.331200  2 N  s          

 Vector    3  Occ=2.000000D+00  E=-1.493078D+00  Symmetry=a1g
              MO Center=  6.8D-36,  2.0D-36,  2.8D-17, r^2= 4.3D-01
   Bfn.  Coefficient  Atom+Function         Bfn.  Coefficient  Atom+Function  
  ----- ------------  ---------------      ----- ------------  ---------------
     6      0.384091  1 N  s                 29      0.384091  2 N  s          
    10      0.168964  1 N  s                 33      0.168964  2 N  s          

 Vector    4  Occ=2.000000D+00  E=-7.739028D-01  Symmetry=a2u
              MO Center=  5.3D-34, -5.5D-34, -3.9D-16, r^2= 1.3D+00
   Bfn.  Coefficient  Atom+Function         Bfn.  Coefficient  Atom+Function  
  ----- ------------  ---------------      ----- ------------  ---------------
    10      0.476387  1 N  s                 33     -0.476387  2 N  s          
     6      0.387235  1 N  s                 29     -0.387235  2 N  s          
    14     -0.284032  1 N  s                 37      0.284032  2 N  s          
     9     -0.152555  1 N  pz                32     -0.152555  2 N  pz         

 Vector    5  Occ=2.000000D+00  E=-6.373929D-01  Symmetry=a1g
              MO Center= -3.8D-36, -1.1D-36, -2.8D-17, r^2= 1.3D+00
   Bfn.  Coefficient  Atom+Function         Bfn.  Coefficient  Atom+Function  
  ----- ------------  ---------------      ----- ------------  ---------------
     9      0.307848  1 N  pz                32     -0.307848  2 N  pz         
    10     -0.271425  1 N  s                 33     -0.271425  2 N  s          
     5      0.211407  1 N  pz                28     -0.211407  2 N  pz         
    13      0.178482  1 N  pz                36     -0.178482  2 N  pz         

 Vector    6  Occ=2.000000D+00  E=-6.249379D-01  Symmetry=eu
              MO Center= -7.5D-27, -2.7D-26,  2.8D-17, r^2= 9.0D-01
   Bfn.  Coefficient  Atom+Function         Bfn.  Coefficient  Atom+Function  
  ----- ------------  ---------------      ----- ------------  ---------------
     8      0.299331  1 N  py                31      0.299331  2 N  py         
    12      0.211093  1 N  py                35      0.211093  2 N  py         
     4      0.183950  1 N  py                27      0.183950  2 N  py         

 Vector    7  Occ=2.000000D+00  E=-6.249379D-01  Symmetry=eu
              MO Center= -5.0D-16,  1.3D-16, -1.7D-16, r^2= 9.0D-01
   Bfn.  Coefficient  Atom+Function         Bfn.  Coefficient  Atom+Function  
  ----- ------------  ---------------      ----- ------------  ---------------
     7      0.299331  1 N  px                30      0.299331  2 N  px         
    11      0.211093  1 N  px                34      0.211093  2 N  px         
     3      0.183950  1 N  px                26      0.183950  2 N  px         

 Vector    8  Occ=0.000000D+00  E= 1.345657D-01  Symmetry=eg
              MO Center=  7.1D-17, -3.3D-17, -6.7D-16, r^2= 4.2D+00
   Bfn.  Coefficient  Atom+Function         Bfn.  Coefficient  Atom+Function  
  ----- ------------  ---------------      ----- ------------  ---------------
    16      1.233396  1 N  py                39     -1.233396  2 N  py         
    12      0.274904  1 N  py                35     -0.274904  2 N  py         
     8      0.239984  1 N  py                31     -0.239984  2 N  py         
    15     -0.202874  1 N  px                38      0.202874  2 N  px         

 Vector    9  Occ=0.000000D+00  E= 1.345657D-01  Symmetry=eg
              MO Center= -1.5D-26, -2.5D-27,  4.4D-16, r^2= 4.2D+00
   Bfn.  Coefficient  Atom+Function         Bfn.  Coefficient  Atom+Function  
  ----- ------------  ---------------      ----- ------------  ---------------
    15      1.233396  1 N  px                38     -1.233396  2 N  px         
    11      0.274904  1 N  px                34     -0.274904  2 N  px         
     7      0.239984  1 N  px                30     -0.239984  2 N  px         
    16      0.202874  1 N  py                39     -0.202874  2 N  py         

 Vector   10  Occ=0.000000D+00  E= 1.426538D-01  Symmetry=a2u
              MO Center=  9.2D-19, -5.6D-18, -4.3D-14, r^2= 1.0D+01
   Bfn.  Coefficient  Atom+Function         Bfn.  Coefficient  Atom+Function  
  ----- ------------  ---------------      ----- ------------  ---------------
    14     16.805684  1 N  s                 37    -16.805684  2 N  s          
    17      5.177317  1 N  pz                40      5.177317  2 N  pz         
    10     -0.478843  1 N  s                 33      0.478843  2 N  s          
    13     -0.439684  1 N  pz                36     -0.439684  2 N  pz         

 Vector   11  Occ=0.000000D+00  E= 1.428578D-01  Symmetry=a1g
              MO Center= -9.1D-17,  6.0D-17,  1.6D-14, r^2= 7.3D+00
   Bfn.  Coefficient  Atom+Function         Bfn.  Coefficient  Atom+Function  
  ----- ------------  ---------------      ----- ------------  ---------------
    14      0.925168  1 N  s                 37      0.925168  2 N  s          
    10     -0.645719  1 N  s                 33     -0.645719  2 N  s          
    17     -0.639394  1 N  pz                40      0.639394  2 N  pz         
    13      0.264743  1 N  pz                36     -0.264743  2 N  pz         

 Vector   12  Occ=0.000000D+00  E= 1.637523D-01  Symmetry=eu
              MO Center=  2.6D-20, -1.3D-19,  1.8D-15, r^2= 7.1D+00
   Bfn.  Coefficient  Atom+Function         Bfn.  Coefficient  Atom+Function  
  ----- ------------  ---------------      ----- ------------  ---------------
    16      0.648956  1 N  py                39      0.648956  2 N  py         
    12     -0.291045  1 N  py                35     -0.291045  2 N  py         

 Vector   13  Occ=0.000000D+00  E= 1.637523D-01  Symmetry=eu
              MO Center=  2.7D-17, -3.7D-18, -5.7D-15, r^2= 7.1D+00
   Bfn.  Coefficient  Atom+Function         Bfn.  Coefficient  Atom+Function  
  ----- ------------  ---------------      ----- ------------  ---------------
    15      0.648956  1 N  px                38      0.648956  2 N  px         
    11     -0.291045  1 N  px                34     -0.291045  2 N  px         

 Vector   14  Occ=0.000000D+00  E= 2.184186D-01  Symmetry=a1g
              MO Center=  2.4D-16, -8.9D-17,  1.0D-13, r^2= 7.2D+00
   Bfn.  Coefficient  Atom+Function         Bfn.  Coefficient  Atom+Function  
  ----- ------------  ---------------      ----- ------------  ---------------
    17      1.560990  1 N  pz                40     -1.560990  2 N  pz         
    10     -0.589860  1 N  s                 33     -0.589860  2 N  s          
    14      0.203964  1 N  s                 37      0.203964  2 N  s          

 Vector   15  Occ=0.000000D+00  E= 2.753176D-01  Symmetry=eg
              MO Center= -1.4D-26,  4.0D-27,  3.1D-15, r^2= 6.2D+00
   Bfn.  Coefficient  Atom+Function         Bfn.  Coefficient  Atom+Function  
  ----- ------------  ---------------      ----- ------------  ---------------
    15      1.944615  1 N  px                38     -1.944615  2 N  px         
    11     -0.778573  1 N  px                34      0.778573  2 N  px         
    16     -0.558742  1 N  py                39      0.558742  2 N  py         
    12      0.223705  1 N  py                35     -0.223705  2 N  py         
     7     -0.192568  1 N  px                30      0.192568  2 N  px         

 Vector   16  Occ=0.000000D+00  E= 2.753176D-01  Symmetry=eg
              MO Center=  4.9D-18,  1.6D-17,  1.1D-15, r^2= 6.2D+00
   Bfn.  Coefficient  Atom+Function         Bfn.  Coefficient  Atom+Function  
  ----- ------------  ---------------      ----- ------------  ---------------
    16      1.944615  1 N  py                39     -1.944615  2 N  py         
    12     -0.778573  1 N  py                35      0.778573  2 N  py         
    15      0.558742  1 N  px                38     -0.558742  2 N  px         
    11     -0.223705  1 N  px                34      0.223705  2 N  px         
     8     -0.192568  1 N  py                31      0.192568  2 N  py         

 Vector   17  Occ=0.000000D+00  E= 3.294861D-01  Symmetry=a2u
              MO Center=  1.5D-18, -2.2D-17,  2.1D-13, r^2= 8.5D+00
   Bfn.  Coefficient  Atom+Function         Bfn.  Coefficient  Atom+Function  
  ----- ------------  ---------------      ----- ------------  ---------------
    14     41.629049  1 N  s                 37    -41.629049  2 N  s          
    17     10.756731  1 N  pz                40     10.756731  2 N  pz         
    10     -1.052608  1 N  s                 33      1.052608  2 N  s          
    13      0.274143  1 N  pz                36      0.274143  2 N  pz         

 Vector   18  Occ=0.000000D+00  E= 6.971278D-01  Symmetry=a2u
              MO Center= -1.2D-18,  5.5D-19,  1.3D-15, r^2= 3.7D+00
   Bfn.  Coefficient  Atom+Function         Bfn.  Coefficient  Atom+Function  
  ----- ------------  ---------------      ----- ------------  ---------------
    10      5.815031  1 N  s                 33     -5.815031  2 N  s          
    13      3.677493  1 N  pz                36      3.677493  2 N  pz         
    14     -3.136636  1 N  s                 37      3.136636  2 N  s          
    17     -1.259615  1 N  pz                40     -1.259615  2 N  pz         


 center of mass
 --------------
 x =   0.00000000 y =   0.00000000 z =   0.00000000

 moments of inertia (a.u.)
 ------------------
          29.067666975783           0.000000000000           0.000000000000
           0.000000000000          29.067666975783           0.000000000000
           0.000000000000           0.000000000000           0.000000000000

     Multipole analysis of the density
     ---------------------------------

     L   x y z        total         alpha         beta         nuclear
     -   - - -        -----         -----         ----         -------
     0   0 0 0     -0.000000     -7.000000     -7.000000     14.000000

     1   1 0 0      0.000000      0.000000      0.000000      0.000000
     1   0 1 0     -0.000000     -0.000000     -0.000000      0.000000
     1   0 0 1      0.000000      0.000000      0.000000      0.000000

     2   2 0 0     -7.664773     -3.832386     -3.832386      0.000000
     2   1 1 0     -0.000000     -0.000000     -0.000000      0.000000
     2   1 0 1      0.000000      0.000000      0.000000      0.000000
     2   0 2 0     -7.664773     -3.832386     -3.832386      0.000000
     2   0 1 1     -0.000000     -0.000000     -0.000000      0.000000
     2   0 0 2     -8.851645    -11.691146    -11.691146     14.530647


 Parallel integral file used       3 records with       0 large values


 Task  times  cpu:        0.3s     wall:        0.3s
 Summary of allocated global arrays
-----------------------------------
  No active global arrays



                         GA Statistics for process    0
                         ------------------------------

       create   destroy   get      put      acc     scatter   gather  read&inc
calls: 1413     1413     1.26e+05 4.03e+04 3.23e+04  146        0     1480     
number of processes/call 1.00e+00 1.00e+00 1.00e+00 1.00e+00 0.00e+00
bytes total:             8.98e+07 2.31e+07 4.43e+07 1.45e+06 0.00e+00 1.18e+04
bytes remote:            0.00e+00 0.00e+00 0.00e+00 0.00e+00 0.00e+00 0.00e+00
Max memory consumed for GA by this process: 660192 bytes
MA_summarize_allocated_blocks: starting scan ...
MA_summarize_allocated_blocks: scan completed: 0 heap blocks, 0 stack blocks
MA usage statistics:

	allocation statistics:
					      heap	     stack
					      ----	     -----
	current number of blocks	         0	         0
	maximum number of blocks	        26	        36
	current total bytes		         0	         0
	maximum total bytes		   5258728	  82741792
	maximum total K-bytes		      5259	     82742
	maximum total M-bytes		         6	        83


                                NWChem Input Module
                                -------------------





                                     CITATION
                                     --------
                Please cite the following reference when publishing
                           results obtained with NWChem:

                 M. Valiev, E.J. Bylaska, N. Govind, K. Kowalski,
              T.P. Straatsma, H.J.J. van Dam, D. Wang, J. Nieplocha,
                        E. Apra, T.L. Windus, W.A. de Jong
                 "NWChem: a comprehensive and scalable open-source
                  solution for large scale molecular simulations"
                      Comput. Phys. Commun. 181, 1477 (2010)
                           doi:10.1016/j.cpc.2010.04.018

                              AUTHORS & CONTRIBUTORS
                              ----------------------
          E. Apra, E. J. Bylaska, W. A. de Jong, N. Govind, K. Kowalski,
       T. P. Straatsma, M. Valiev, H. J. J. van Dam, D. Wang, T. L. Windus,
        J. Hammond, J. Autschbach, K. Bhaskaran-Nair, J. Brabec, K. Lopata,
     F. Aquino, S. Hirata, M. T. Hackler, J. Mullin, P. Nichols, R. Peverati,
    J. Pittner, Y. Zhao, P.-D. Fan, R. J. Harrison, M. Dupuis, D. Silverstein,
    D. M. A. Smith, J. Nieplocha, V. Tipparaju, M. Krishnan, B. E. Van Kuiken,
        A. Vazquez-Mayagoitia, L. Jensen, M. Swart, Q. Wu, T. Van Voorhis,
     A. A. Auer, M. Nooijen, L. D. Crosby, E. Brown, G. Cisneros, G. I. Fann,
     H. Fruchtl, J. Garza, K. Hirao, R. Kendall, J. A. Nichols, K. Tsemekhman,
      K. Wolinski, J. Anchell, D. Bernholdt, P. Borowski, T. Clark, D. Clerc,
      H. Dachsel, M. Deegan, K. Dyall, D. Elwood, E. Glendening, M. Gutowski,
      A. Hess, J. Jaffe, B. Johnson, J. Ju, R. Kobayashi, R. Kutteh, Z. Lin,
   R. Littlefield, X. Long, B. Meng, T. Nakajima, S. Niu, L. Pollack, M. Rosing,
   K. Glaesemann, G. Sandrone, M. Stave, H. Taylor, G. Thomas, J. H. van Lenthe,
                                A. Wong, Z. Zhang.

 Total times  cpu:        3.4s     wall:        3.7s
