 argument  1 = N2.nw
                                         
                                         


              Northwest Computational Chemistry Package (NWChem) 6.3
              ------------------------------------------------------


                    Environmental Molecular Sciences Laboratory
                       Pacific Northwest National Laboratory
                                Richland, WA 99352

                              Copyright (c) 1994-2012
                       Pacific Northwest National Laboratory
                            Battelle Memorial Institute

             NWChem is an open-source computational chemistry package
                        distributed under the terms of the
                      Educational Community License (ECL) 2.0
             A copy of the license is included with this distribution
                              in the LICENSE.TXT file

                                  ACKNOWLEDGMENT
                                  --------------

            This software and its documentation were developed at the
            EMSL at Pacific Northwest National Laboratory, a multiprogram
            national laboratory, operated for the U.S. Department of Energy
            by Battelle under Contract Number DE-AC05-76RL01830. Support
            for this work was provided by the Department of Energy Office
            of Biological and Environmental Research, Office of Basic
            Energy Sciences, and the Office of Advanced Scientific Computing.


           Job information
           ---------------

    hostname        = ChensPro.local
    program         = nwchem
    date            = Fri Apr 17 10:26:21 2015

    compiled        = Sat_Jul_20_13:52:43_2013
    source          = /Users/shyuepingong/Software/nwchem-6.3
    nwchem branch   = 6.3
    nwchem revision = 24277
    ga revision     = 10379
    input           = N2.nw
    prefix          = N2.
    data base       = ./N2.db
    status          = startup
    nproc           =        1
    time left       =     -1s



           Memory information
           ------------------

    heap     =   32768001 doubles =    250.0 Mbytes
    stack    =   32768001 doubles =    250.0 Mbytes
    global   =   65536000 doubles =    500.0 Mbytes (distinct from heap & stack)
    total    =  131072002 doubles =   1000.0 Mbytes
    verify   = yes
    hardfail = no 


           Directory information
           ---------------------

  0 permanent = .
  0 scratch   = .




                                NWChem Input Module
                                -------------------



 Scaling coordinates for geometry "geometry" by  1.889725989
 (inverse scale =  0.529177249)

 ORDER OF PRIMARY AXIS IS BEING SET TO 4
 D4H symmetry detected

          ------
          auto-z
          ------


                             Geometry "geometry" -> ""
                             -------------------------

 Output coordinates in angstroms (scale by  1.889725989 to convert to a.u.)

  No.       Tag          Charge          X              Y              Z
 ---- ---------------- ---------- -------------- -------------- --------------
    1 N                    7.0000     0.00000000     0.00000000    -0.55000000
    2 N                    7.0000     0.00000000     0.00000000     0.55000000

      Atomic Mass 
      ----------- 

      N                 14.003070


 Effective nuclear repulsion energy (a.u.)      23.5724410918

            Nuclear Dipole moment (a.u.) 
            ----------------------------
        X                 Y               Z
 ---------------- ---------------- ----------------
     0.0000000000     0.0000000000     0.0000000000

      Symmetry information
      --------------------

 Group name             D4h       
 Group number             28
 Group order              16
 No. of unique centers     1

      Symmetry unique atoms

     1



                                Z-matrix (autoz)
                                -------- 

 Units are Angstrom for bonds and degrees for angles

      Type          Name      I     J     K     L     M      Value
      ----------- --------  ----- ----- ----- ----- ----- ----------
    1 Stretch                  1     2                       1.10000


            XYZ format geometry
            -------------------
     2
 geometry
 N                     0.00000000     0.00000000    -0.55000000
 N                     0.00000000     0.00000000     0.55000000

 ==============================================================================
                                internuclear distances
 ------------------------------------------------------------------------------
       center one      |      center two      | atomic units |  angstroms
 ------------------------------------------------------------------------------
    2 N                |   1 N                |     2.07870  |     1.10000
 ------------------------------------------------------------------------------
                         number of included internuclear distances:          1
 ==============================================================================



                                  N2 dft optimize
                                  ---------------
  library name resolved from: environment
  library file name is: </Users/chenzheng/Google Drive/nano266/resources/nwchem_basis/>
  
                      Basis "ao basis" -> "" (cartesian)
                      -----
  N (Nitrogen)
  ------------
            Exponent  Coefficients 
       -------------- ---------------------------------------------------------
  1 S  6.29348000E+03  0.001970
  1 S  9.49044000E+02  0.014961
  1 S  2.18776000E+02  0.073501
  1 S  6.36916000E+01  0.248937
  1 S  1.88282000E+01  0.602460
  1 S  2.72023000E+00  0.256202

  2 S  3.06331000E+01  0.111906
  2 S  7.02614000E+00  0.921666
  2 S  2.11205000E+00 -0.002569

  3 P  3.06331000E+01  0.038312
  3 P  7.02614000E+00  0.237403
  3 P  2.11205000E+00  0.817592

  4 S  6.84009000E-01  1.000000

  5 P  6.84009000E-01  1.000000

  6 S  2.00878000E-01  1.000000

  7 P  2.00878000E-01  1.000000

  8 S  6.39000000E-02  1.000000

  9 P  6.39000000E-02  1.000000

 10 D  9.13000000E-01  1.000000



 Summary of "ao basis" -> "" (cartesian)
 ------------------------------------------------------------------------------
       Tag                 Description            Shells   Functions and Types
 ---------------- ------------------------------  ------  ---------------------
 N                          6-311+G*                10       23   5s4p1d




                           NWChem Geometry Optimization
                           ----------------------------




                                  N2 dft optimize


 maximum gradient threshold         (gmax) =   0.000450
 rms gradient threshold             (grms) =   0.000300
 maximum cartesian step threshold   (xmax) =   0.001800
 rms cartesian step threshold       (xrms) =   0.001200
 fixed trust radius                (trust) =   0.300000
 maximum step size to saddle      (sadstp) =   0.100000
 energy precision                  (eprec) =   5.0D-06
 maximum number of steps          (nptopt) =   20
 initial hessian option           (inhess) =    0
 line search option               (linopt) =    1
 hessian update option            (modupd) =    1
 saddle point option              (modsad) =    0
 initial eigen-mode to follow     (moddir) =    0
 initial variable to follow       (vardir) =    0
 follow first negative mode     (firstneg) =    T
 apply conjugacy                    (opcg) =    F
 source of zmatrix                         =   autoz   


          -------------------
          Energy Minimization
          -------------------


 Names of Z-matrix variables 
    1         

 Variables with the same non-blank name are constrained to be equal


 Using diagonal initial Hessian 
 Scaling for Hessian diagonals: bonds = 1.00  angles = 0.25  torsions = 0.10

          --------
          Step   0
          --------


                         Geometry "geometry" -> "geometry"
                         ---------------------------------

 Output coordinates in angstroms (scale by  1.889725989 to convert to a.u.)

  No.       Tag          Charge          X              Y              Z
 ---- ---------------- ---------- -------------- -------------- --------------
    1 N                    7.0000     0.00000000     0.00000000    -0.55000000
    2 N                    7.0000     0.00000000     0.00000000     0.55000000

      Atomic Mass 
      ----------- 

      N                 14.003070


 Effective nuclear repulsion energy (a.u.)      23.5724410918

            Nuclear Dipole moment (a.u.) 
            ----------------------------
        X                 Y               Z
 ---------------- ---------------- ----------------
     0.0000000000     0.0000000000     0.0000000000

      Symmetry information
      --------------------

 Group name             D4h       
 Group number             28
 Group order              16
 No. of unique centers     1

      Symmetry unique atoms

     1


                                 NWChem DFT Module
                                 -----------------


                                  N2 dft optimize


  Caching 1-el integrals 

            General Information
            -------------------
          SCF calculation type: DFT
          Wavefunction type:  closed shell.
          No. of atoms     :     2
          No. of electrons :    14
           Alpha electrons :     7
            Beta electrons :     7
          Charge           :     0
          Spin multiplicity:     1
          Use of symmetry is: on ; symmetry adaption is: on 
          Maximum number of iterations:  30
          AO basis - number of functions:    46
                     number of shells:    20
          Convergence on energy requested: 1.00D-06
          Convergence on density requested: 1.00D-05
          Convergence on gradient requested: 5.00D-04

              XC Information
              --------------
                         B3LYP Method XC Potential
                     Hartree-Fock (Exact) Exchange  0.200          
                        Slater Exchange Functional  0.800 local    
                    Becke 1988 Exchange Functional  0.720 non-local
              Lee-Yang-Parr Correlation Functional  0.810          
                  VWN I RPA Correlation Functional  0.190 local    

             Grid Information
             ----------------
          Grid used for XC integration:  medium    
          Radial quadrature: Mura-Knowles        
          Angular quadrature: Lebedev. 
          Tag              B.-S. Rad. Rad. Pts. Rad. Cut. Ang. Pts.
          ---              ---------- --------- --------- ---------
          N                   0.65       49           8.0       434
          Grid pruning is: on 
          Number of quadrature shells:    49
          Spatial weights used:  Erf1

          Convergence Information
          -----------------------
          Convergence aids based upon iterative change in 
          total energy or number of iterations. 
          Levelshifting, if invoked, occurs when the 
          HOMO/LUMO gap drops below (HL_TOL): 1.00D-02
          DIIS, if invoked, will attempt to extrapolate 
          using up to (NFOCK): 10 stored Fock matrices.

                    Damping( 0%)  Levelshifting(0.5)       DIIS
                  --------------- ------------------- ---------------
          dE  on:    start            ASAP                start   
          dE off:    2 iters         30 iters            30 iters 


      Screening Tolerance Information
      -------------------------------
          Density screening/tol_rho: 1.00D-10
          AO Gaussian exp screening on grid/accAOfunc:  14
          CD Gaussian exp screening on grid/accCDfunc:  20
          XC Gaussian exp screening on grid/accXCfunc:  20
          Schwarz screening/accCoul: 1.00D-08


      Superposition of Atomic Density Guess
      -------------------------------------

 Sum of atomic energies:        -108.61593604

      Non-variational initial energy
      ------------------------------

 Total energy =    -109.108329
 1-e energy   =    -193.743811
 2-e energy   =      61.063042
 HOMO         =      -0.431715
 LUMO         =       0.011366


      Symmetry analysis of molecular orbitals - initial
      -------------------------------------------------


 !! scf_movecs_sym_adapt:    4 vectors were symmetry contaminated

  Symmetry fudging

 !! scf_movecs_sym_adapt:    4 vectors were symmetry contaminated

  Numbering of irreducible representations: 

     1 a1g         2 a1u         3 a2g         4 a2u         5 b1g     
     6 b1u         7 b2g         8 b2u         9 eg         10 eu      

  Orbital symmetries:

     1 a1g         2 a2u         3 a1g         4 a2u         5 eu      
     6 eu          7 a1g         8 eg          9 eg         10 a2u     
    11 a1g        12 eu         13 eu         14 a1g        15 eg      
    16 eg         17 a2u     

   Time after variat. SCF:      0.1
   Time prior to 1st pass:      0.1

 Integral file          = ./N2.aoints.0
 Record size in doubles =  65536        No. of integs per rec  =  43688
 Max. records in memory =      3        Max. records in file   = 187879
 No. of bits per label  =      8        No. of bits per value  =     64


 #quartets = 1.511D+04 #integrals = 1.160D+05 #direct =  0.0% #cached =100.0%


 Grid_pts file          = ./N2.gridpts.0
 Record size in doubles =  12289        No. of grid_pts per rec  =   3070
 Max. records in memory =      9        Max. recs in file   =   1001943


           Memory utilization after 1st SCF pass: 
           Heap Space remaining (MW):       32.46            32458735
          Stack Space remaining (MW):       32.77            32767653

   convergence    iter        energy       DeltaE   RMS-Dens  Diis-err    time
 ---------------- ----- ----------------- --------- --------- ---------  ------
 d= 0,ls=0.0,diis     1   -109.5386908384 -1.33D+02  5.84D-03  4.24D-01     0.3
 d= 0,ls=0.0,diis     2   -109.5549023243 -1.62D-02  5.87D-03  5.91D-02     0.3
 d= 0,ls=0.0,diis     3   -109.5600054916 -5.10D-03  1.36D-03  7.42D-03     0.3
 d= 0,ls=0.0,diis     4   -109.5607642048 -7.59D-04  5.52D-05  2.56D-06     0.3
 d= 0,ls=0.0,diis     5   -109.5607645080 -3.03D-07  2.72D-06  3.49D-08     0.4


         Total DFT energy =     -109.560764507968
      One electron energy =     -194.400080975850
           Coulomb energy =       74.958519936630
    Exchange-Corr. energy =      -13.691644560553
 Nuclear repulsion energy =       23.572441091805

 Numeric. integr. density =       13.999999995997

     Total iterative time =      0.2s



                  Occupations of the irreducible representations
                  ----------------------------------------------

                     irrep           alpha         beta
                     --------     --------     --------
                     a1g               3.0          3.0
                     a1u               0.0          0.0
                     a2g               0.0          0.0
                     a2u               2.0          2.0
                     b1g               0.0          0.0
                     b1u               0.0          0.0
                     b2g               0.0          0.0
                     b2u               0.0          0.0
                     eg                0.0          0.0
                     eu                2.0          2.0


                       DFT Final Molecular Orbital Analysis
                       ------------------------------------

 Vector    1  Occ=2.000000D+00  E=-1.442962D+01  Symmetry=a1g
              MO Center=  0.0D+00,  0.0D+00, -9.4D-17, r^2= 3.2D-01
   Bfn.  Coefficient  Atom+Function         Bfn.  Coefficient  Atom+Function  
  ----- ------------  ---------------      ----- ------------  ---------------
     1      0.394322  1 N  s                 24      0.394322  2 N  s          
     2      0.326944  1 N  s                 25      0.326944  2 N  s          

 Vector    2  Occ=2.000000D+00  E=-1.442785D+01  Symmetry=a2u
              MO Center= -1.7D-21,  5.7D-22,  2.9D-16, r^2= 3.2D-01
   Bfn.  Coefficient  Atom+Function         Bfn.  Coefficient  Atom+Function  
  ----- ------------  ---------------      ----- ------------  ---------------
     1      0.394453  1 N  s                 24     -0.394453  2 N  s          
     2      0.327051  1 N  s                 25     -0.327051  2 N  s          

 Vector    3  Occ=2.000000D+00  E=-1.138104D+00  Symmetry=a1g
              MO Center=  2.7D-19,  1.4D-19, -1.7D-15, r^2= 4.3D-01
   Bfn.  Coefficient  Atom+Function         Bfn.  Coefficient  Atom+Function  
  ----- ------------  ---------------      ----- ------------  ---------------
     6      0.388246  1 N  s                 29      0.388246  2 N  s          
    10      0.170027  1 N  s                 33      0.170027  2 N  s          

 Vector    4  Occ=2.000000D+00  E=-5.618670D-01  Symmetry=a2u
              MO Center=  5.5D-18,  2.6D-17, -1.1D-15, r^2= 1.3D+00
   Bfn.  Coefficient  Atom+Function         Bfn.  Coefficient  Atom+Function  
  ----- ------------  ---------------      ----- ------------  ---------------
    10      0.506753  1 N  s                 33     -0.506753  2 N  s          
     6      0.399909  1 N  s                 29     -0.399909  2 N  s          
    14     -0.184861  1 N  s                 37      0.184861  2 N  s          

 Vector    5  Occ=2.000000D+00  E=-4.754650D-01  Symmetry=eu
              MO Center= -1.1D-16,  2.2D-17,  1.1D-16, r^2= 9.0D-01
   Bfn.  Coefficient  Atom+Function         Bfn.  Coefficient  Atom+Function  
  ----- ------------  ---------------      ----- ------------  ---------------
     7      0.287902  1 N  px                30      0.287902  2 N  px         
    11      0.196176  1 N  px                34      0.196176  2 N  px         
     3      0.192287  1 N  px                26      0.192287  2 N  px         

 Vector    6  Occ=2.000000D+00  E=-4.754650D-01  Symmetry=eu
              MO Center= -7.5D-18,  4.6D-18, -2.5D-16, r^2= 9.0D-01
   Bfn.  Coefficient  Atom+Function         Bfn.  Coefficient  Atom+Function  
  ----- ------------  ---------------      ----- ------------  ---------------
     8      0.287902  1 N  py                31      0.287902  2 N  py         
    12      0.196176  1 N  py                35      0.196176  2 N  py         
     4      0.192287  1 N  py                27      0.192287  2 N  py         

 Vector    7  Occ=2.000000D+00  E=-4.407938D-01  Symmetry=a1g
              MO Center=  6.5D-18,  3.3D-18,  2.0D-15, r^2= 1.3D+00
   Bfn.  Coefficient  Atom+Function         Bfn.  Coefficient  Atom+Function  
  ----- ------------  ---------------      ----- ------------  ---------------
     9      0.297890  1 N  pz                32     -0.297890  2 N  pz         
    10     -0.262011  1 N  s                 33     -0.262011  2 N  s          
     5      0.217922  1 N  pz                28     -0.217922  2 N  pz         
    13      0.176583  1 N  pz                36     -0.176583  2 N  pz         

 Vector    8  Occ=0.000000D+00  E=-3.984999D-02  Symmetry=eg
              MO Center=  2.1D-17, -1.7D-17,  2.8D-16, r^2= 1.7D+00
   Bfn.  Coefficient  Atom+Function         Bfn.  Coefficient  Atom+Function  
  ----- ------------  ---------------      ----- ------------  ---------------
    12      0.409829  1 N  py                35     -0.409829  2 N  py         
    16      0.351414  1 N  py                39     -0.351414  2 N  py         
     8      0.301069  1 N  py                31     -0.301069  2 N  py         
    11      0.201224  1 N  px                34     -0.201224  2 N  px         
     4      0.198061  1 N  py                27     -0.198061  2 N  py         

 Vector    9  Occ=0.000000D+00  E=-3.984999D-02  Symmetry=eg
              MO Center= -4.9D-18,  6.1D-18, -5.0D-16, r^2= 1.7D+00
   Bfn.  Coefficient  Atom+Function         Bfn.  Coefficient  Atom+Function  
  ----- ------------  ---------------      ----- ------------  ---------------
    11      0.409829  1 N  px                34     -0.409829  2 N  px         
    15      0.351414  1 N  px                38     -0.351414  2 N  px         
     7      0.301069  1 N  px                30     -0.301069  2 N  px         
    12     -0.201224  1 N  py                35      0.201224  2 N  py         
     3      0.198061  1 N  px                26     -0.198061  2 N  px         

 Vector   10  Occ=0.000000D+00  E= 6.217904D-02  Symmetry=a1g
              MO Center=  5.7D-17, -1.7D-17, -2.1D-13, r^2= 6.3D+00
   Bfn.  Coefficient  Atom+Function         Bfn.  Coefficient  Atom+Function  
  ----- ------------  ---------------      ----- ------------  ---------------
    14      0.912635  1 N  s                 37      0.912635  2 N  s          
    10     -0.660179  1 N  s                 33     -0.660179  2 N  s          
    17     -0.327118  1 N  pz                40      0.327118  2 N  pz         
    13      0.214203  1 N  pz                36     -0.214203  2 N  pz         

 Vector   11  Occ=0.000000D+00  E= 8.014165D-02  Symmetry=a2u
              MO Center= -2.1D-20, -5.8D-20,  1.9D-13, r^2= 9.2D+00
   Bfn.  Coefficient  Atom+Function         Bfn.  Coefficient  Atom+Function  
  ----- ------------  ---------------      ----- ------------  ---------------
    14     11.463619  1 N  s                 37    -11.463619  2 N  s          
    17      3.820044  1 N  pz                40      3.820044  2 N  pz         
    13     -0.249931  1 N  pz                36     -0.249931  2 N  pz         

 Vector   12  Occ=0.000000D+00  E= 9.074523D-02  Symmetry=eu
              MO Center=  2.4D-18,  5.1D-18,  8.3D-15, r^2= 6.8D+00
   Bfn.  Coefficient  Atom+Function         Bfn.  Coefficient  Atom+Function  
  ----- ------------  ---------------      ----- ------------  ---------------
    16      0.581457  1 N  py                39      0.581457  2 N  py         
    15      0.256998  1 N  px                38      0.256998  2 N  px         
    12     -0.214880  1 N  py                35     -0.214880  2 N  py         

 Vector   13  Occ=0.000000D+00  E= 9.074523D-02  Symmetry=eu
              MO Center=  2.5D-20, -1.1D-20,  2.9D-16, r^2= 6.8D+00
   Bfn.  Coefficient  Atom+Function         Bfn.  Coefficient  Atom+Function  
  ----- ------------  ---------------      ----- ------------  ---------------
    15      0.581457  1 N  px                38      0.581457  2 N  px         
    16     -0.256998  1 N  py                39     -0.256998  2 N  py         
    11     -0.214880  1 N  px                34     -0.214880  2 N  px         

 Vector   14  Occ=0.000000D+00  E= 1.406811D-01  Symmetry=a1g
              MO Center=  7.3D-17, -5.8D-17,  4.7D-14, r^2= 7.6D+00
   Bfn.  Coefficient  Atom+Function         Bfn.  Coefficient  Atom+Function  
  ----- ------------  ---------------      ----- ------------  ---------------
    17      1.558790  1 N  pz                40     -1.558790  2 N  pz         
    10     -0.415231  1 N  s                 33     -0.415231  2 N  s          

 Vector   15  Occ=0.000000D+00  E= 1.722046D-01  Symmetry=eg
              MO Center=  3.1D-17, -6.6D-17, -6.7D-16, r^2= 8.3D+00
   Bfn.  Coefficient  Atom+Function         Bfn.  Coefficient  Atom+Function  
  ----- ------------  ---------------      ----- ------------  ---------------
    15      2.010263  1 N  px                38     -2.010263  2 N  px         
    16     -0.929040  1 N  py                39      0.929040  2 N  py         
    11     -0.428195  1 N  px                34      0.428195  2 N  px         
    12      0.197889  1 N  py                35     -0.197889  2 N  py         

 Vector   16  Occ=0.000000D+00  E= 1.722046D-01  Symmetry=eg
              MO Center= -1.9D-17, -7.8D-18, -8.0D-15, r^2= 8.3D+00
   Bfn.  Coefficient  Atom+Function         Bfn.  Coefficient  Atom+Function  
  ----- ------------  ---------------      ----- ------------  ---------------
    16      2.010263  1 N  py                39     -2.010263  2 N  py         
    15      0.929040  1 N  px                38     -0.929040  2 N  px         
    12     -0.428195  1 N  py                35      0.428195  2 N  py         
    11     -0.197889  1 N  px                34      0.197889  2 N  px         

 Vector   17  Occ=0.000000D+00  E= 2.575590D-01  Symmetry=a2u
              MO Center=  4.0D-18, -1.1D-17, -2.5D-13, r^2= 8.9D+00
   Bfn.  Coefficient  Atom+Function         Bfn.  Coefficient  Atom+Function  
  ----- ------------  ---------------      ----- ------------  ---------------
    14     39.846807  1 N  s                 37    -39.846807  2 N  s          
    17     10.596943  1 N  pz                40     10.596943  2 N  pz         
    10     -0.763990  1 N  s                 33      0.763990  2 N  s          
    13      0.332031  1 N  pz                36      0.332031  2 N  pz         

 Vector   18  Occ=0.000000D+00  E= 5.040560D-01  Symmetry=a2u
              MO Center= -1.2D-18, -6.4D-19,  3.3D-15, r^2= 3.4D+00
   Bfn.  Coefficient  Atom+Function         Bfn.  Coefficient  Atom+Function  
  ----- ------------  ---------------      ----- ------------  ---------------
    10      4.914166  1 N  s                 33     -4.914166  2 N  s          
    14     -4.525041  1 N  s                 37      4.525041  2 N  s          
    13      3.181089  1 N  pz                36      3.181089  2 N  pz         
    17     -1.645870  1 N  pz                40     -1.645870  2 N  pz         
     6      0.196327  1 N  s                 29     -0.196327  2 N  s          


 center of mass
 --------------
 x =   0.00000000 y =   0.00000000 z =   0.00000000

 moments of inertia (a.u.)
 ------------------
          30.253547438217           0.000000000000           0.000000000000
           0.000000000000          30.253547438217           0.000000000000
           0.000000000000           0.000000000000           0.000000000000

     Multipole analysis of the density
     ---------------------------------

     L   x y z        total         alpha         beta         nuclear
     -   - - -        -----         -----         ----         -------
     0   0 0 0     -0.000000     -7.000000     -7.000000     14.000000

     1   1 0 0      0.000000      0.000000      0.000000      0.000000
     1   0 1 0     -0.000000     -0.000000     -0.000000      0.000000
     1   0 0 1     -0.000000     -0.000000     -0.000000      0.000000

     2   2 0 0     -7.683300     -3.841650     -3.841650      0.000000
     2   1 1 0     -0.000000     -0.000000     -0.000000      0.000000
     2   1 0 1      0.000000      0.000000      0.000000      0.000000
     2   0 2 0     -7.683300     -3.841650     -3.841650      0.000000
     2   0 1 1      0.000000      0.000000      0.000000      0.000000
     2   0 0 2     -8.937697    -12.030577    -12.030577     15.123457


 Parallel integral file used       3 records with       0 large values



                            NWChem DFT Gradient Module
                            --------------------------


                                  N2 dft optimize



  charge          =   0.00
  wavefunction    = closed shell

  Using symmetry


                         DFT ENERGY GRADIENTS

    atom               coordinates                        gradient
                 x          y          z           x          y          z
   1 N       0.000000   0.000000  -1.039349    0.000000   0.000000  -0.013382
   2 N       0.000000   0.000000   1.039349    0.000000   0.000000   0.013382

                 ----------------------------------------
                 |  Time  |  1-e(secs)   |  2-e(secs)   |
                 ----------------------------------------
                 |  CPU   |       0.00   |       0.18   |
                 ----------------------------------------
                 |  WALL  |       0.00   |       0.18   |
                 ----------------------------------------

@ Step       Energy      Delta E   Gmax     Grms     Xrms     Xmax   Walltime
@ ---- ---------------- -------- -------- -------- -------- -------- --------
@    0    -109.56076451  0.0D+00  0.01338  0.01338  0.00000  0.00000      0.7
                                                                    



                                Z-matrix (autoz)
                                -------- 

 Units are Angstrom for bonds and degrees for angles

      Type          Name      I     J     K     L     M      Value     Gradient
      ----------- --------  ----- ----- ----- ----- ----- ---------- ----------
    1 Stretch                  1     2                       1.10000    0.01338


                                 NWChem DFT Module
                                 -----------------


                                  N2 dft optimize


  Caching 1-el integrals 

            General Information
            -------------------
          SCF calculation type: DFT
          Wavefunction type:  closed shell.
          No. of atoms     :     2
          No. of electrons :    14
           Alpha electrons :     7
            Beta electrons :     7
          Charge           :     0
          Spin multiplicity:     1
          Use of symmetry is: on ; symmetry adaption is: on 
          Maximum number of iterations:  30
          AO basis - number of functions:    46
                     number of shells:    20
          Convergence on energy requested: 1.00D-06
          Convergence on density requested: 1.00D-05
          Convergence on gradient requested: 5.00D-04

              XC Information
              --------------
                         B3LYP Method XC Potential
                     Hartree-Fock (Exact) Exchange  0.200          
                        Slater Exchange Functional  0.800 local    
                    Becke 1988 Exchange Functional  0.720 non-local
              Lee-Yang-Parr Correlation Functional  0.810          
                  VWN I RPA Correlation Functional  0.190 local    

             Grid Information
             ----------------
          Grid used for XC integration:  medium    
          Radial quadrature: Mura-Knowles        
          Angular quadrature: Lebedev. 
          Tag              B.-S. Rad. Rad. Pts. Rad. Cut. Ang. Pts.
          ---              ---------- --------- --------- ---------
          N                   0.65       49           8.0       434
          Grid pruning is: on 
          Number of quadrature shells:    49
          Spatial weights used:  Erf1

          Convergence Information
          -----------------------
          Convergence aids based upon iterative change in 
          total energy or number of iterations. 
          Levelshifting, if invoked, occurs when the 
          HOMO/LUMO gap drops below (HL_TOL): 1.00D-02
          DIIS, if invoked, will attempt to extrapolate 
          using up to (NFOCK): 10 stored Fock matrices.

                    Damping( 0%)  Levelshifting(0.5)       DIIS
                  --------------- ------------------- ---------------
          dE  on:    start            ASAP                start   
          dE off:    2 iters         30 iters            30 iters 


      Screening Tolerance Information
      -------------------------------
          Density screening/tol_rho: 1.00D-10
          AO Gaussian exp screening on grid/accAOfunc:  14
          CD Gaussian exp screening on grid/accCDfunc:  20
          XC Gaussian exp screening on grid/accXCfunc:  20
          Schwarz screening/accCoul: 1.00D-08


 Loading old vectors from job with title :

N2 dft optimize


      Symmetry analysis of molecular orbitals - initial
      -------------------------------------------------

  Numbering of irreducible representations: 

     1 a1g         2 a1u         3 a2g         4 a2u         5 b1g     
     6 b1u         7 b2g         8 b2u         9 eg         10 eu      

  Orbital symmetries:

     1 a1g         2 a2u         3 a1g         4 a2u         5 eu      
     6 eu          7 a1g         8 eg          9 eg         10 a1g     
    11 a2u        12 eu         13 eu         14 a1g        15 eg      
    16 eg         17 a2u     

   Time after variat. SCF:      0.6
   Time prior to 1st pass:      0.6

 Integral file          = ./N2.aoints.0
 Record size in doubles =  65536        No. of integs per rec  =  43688
 Max. records in memory =      3        Max. records in file   = 187879
 No. of bits per label  =      8        No. of bits per value  =     64


 #quartets = 1.511D+04 #integrals = 1.160D+05 #direct =  0.0% #cached =100.0%


 Grid_pts file          = ./N2.gridpts.0
 Record size in doubles =  12289        No. of grid_pts per rec  =   3070
 Max. records in memory =      9        Max. recs in file   =   1001943


           Memory utilization after 1st SCF pass: 
           Heap Space remaining (MW):       32.46            32458735
          Stack Space remaining (MW):       32.77            32767653

   convergence    iter        energy       DeltaE   RMS-Dens  Diis-err    time
 ---------------- ----- ----------------- --------- --------- ---------  ------
 d= 0,ls=0.0,diis     1   -109.5606063806 -1.33D+02  7.15D-04  1.34D-03     0.8
 d= 0,ls=0.0,diis     2   -109.5606847995 -7.84D-05  3.35D-04  1.98D-04     0.8
 d= 0,ls=0.0,diis     3   -109.5607018700 -1.71D-05  7.70D-05  2.35D-05     0.8
 d= 0,ls=0.0,diis     4   -109.5607042965 -2.43D-06  5.32D-06  2.00D-08     0.8
 d= 0,ls=0.0,diis     5   -109.5607042985 -2.02D-09  4.29D-07  5.61D-10     0.9


         Total DFT energy =     -109.560704298493
      One electron energy =     -194.858340005135
           Coulomb energy =       75.193756832098
    Exchange-Corr. energy =      -13.706134798975
 Nuclear repulsion energy =       23.810013673519

 Numeric. integr. density =       13.999999849061

     Total iterative time =      0.2s



                  Occupations of the irreducible representations
                  ----------------------------------------------

                     irrep           alpha         beta
                     --------     --------     --------
                     a1g               3.0          3.0
                     a1u               0.0          0.0
                     a2g               0.0          0.0
                     a2u               2.0          2.0
                     b1g               0.0          0.0
                     b1u               0.0          0.0
                     b2g               0.0          0.0
                     b2u               0.0          0.0
                     eg                0.0          0.0
                     eu                2.0          2.0


                       DFT Final Molecular Orbital Analysis
                       ------------------------------------

 Vector    1  Occ=2.000000D+00  E=-1.442658D+01  Symmetry=a1g
              MO Center=  1.4D-18, -1.8D-18,  3.7D-13, r^2= 3.2D-01
   Bfn.  Coefficient  Atom+Function         Bfn.  Coefficient  Atom+Function  
  ----- ------------  ---------------      ----- ------------  ---------------
     1      0.394303  1 N  s                 24      0.394303  2 N  s          
     2      0.326924  1 N  s                 25      0.326924  2 N  s          

 Vector    2  Occ=2.000000D+00  E=-1.442464D+01  Symmetry=a2u
              MO Center= -1.4D-30,  1.4D-30, -3.7D-13, r^2= 3.2D-01
   Bfn.  Coefficient  Atom+Function         Bfn.  Coefficient  Atom+Function  
  ----- ------------  ---------------      ----- ------------  ---------------
     1      0.394445  1 N  s                 24     -0.394445  2 N  s          
     2      0.327041  1 N  s                 25     -0.327041  2 N  s          

 Vector    3  Occ=2.000000D+00  E=-1.144574D+00  Symmetry=a1g
              MO Center= -1.7D-18,  2.9D-19, -7.5D-16, r^2= 4.3D-01
   Bfn.  Coefficient  Atom+Function         Bfn.  Coefficient  Atom+Function  
  ----- ------------  ---------------      ----- ------------  ---------------
     6      0.387854  1 N  s                 29      0.387854  2 N  s          
    10      0.167871  1 N  s                 33      0.167871  2 N  s          

 Vector    4  Occ=2.000000D+00  E=-5.588457D-01  Symmetry=a2u
              MO Center=  1.0D-32, -2.5D-34,  1.0D-15, r^2= 1.3D+00
   Bfn.  Coefficient  Atom+Function         Bfn.  Coefficient  Atom+Function  
  ----- ------------  ---------------      ----- ------------  ---------------
    10      0.510083  1 N  s                 33     -0.510083  2 N  s          
     6      0.397926  1 N  s                 29     -0.397926  2 N  s          
    14     -0.189348  1 N  s                 37      0.189348  2 N  s          

 Vector    5  Occ=2.000000D+00  E=-4.789690D-01  Symmetry=eu
              MO Center= -2.6D-16, -2.7D-16,  1.9D-16, r^2= 8.9D-01
   Bfn.  Coefficient  Atom+Function         Bfn.  Coefficient  Atom+Function  
  ----- ------------  ---------------      ----- ------------  ---------------
     8      0.238793  1 N  py                31      0.238793  2 N  py         
     7      0.198701  1 N  px                30      0.198701  2 N  px         
    12      0.161326  1 N  py                35      0.161326  2 N  py         
     4      0.159728  1 N  py                27      0.159728  2 N  py         

 Vector    6  Occ=2.000000D+00  E=-4.789690D-01  Symmetry=eu
              MO Center= -5.0D-18,  3.8D-18, -1.9D-16, r^2= 8.9D-01
   Bfn.  Coefficient  Atom+Function         Bfn.  Coefficient  Atom+Function  
  ----- ------------  ---------------      ----- ------------  ---------------
     7      0.238793  1 N  px                30      0.238793  2 N  px         
     8     -0.198701  1 N  py                31     -0.198701  2 N  py         
    11      0.161326  1 N  px                34      0.161326  2 N  px         
     3      0.159728  1 N  px                26      0.159728  2 N  px         

 Vector    7  Occ=2.000000D+00  E=-4.412892D-01  Symmetry=a1g
              MO Center=  1.4D-17, -2.6D-18, -3.1D-16, r^2= 1.3D+00
   Bfn.  Coefficient  Atom+Function         Bfn.  Coefficient  Atom+Function  
  ----- ------------  ---------------      ----- ------------  ---------------
     9      0.296938  1 N  pz                32     -0.296938  2 N  pz         
    10     -0.263432  1 N  s                 33     -0.263432  2 N  s          
     5      0.218353  1 N  pz                28     -0.218353  2 N  pz         
    13      0.175718  1 N  pz                36     -0.175718  2 N  pz         

 Vector    8  Occ=0.000000D+00  E=-3.491970D-02  Symmetry=eg
              MO Center=  2.5D-17, -3.0D-18, -1.1D-16, r^2= 1.7D+00
   Bfn.  Coefficient  Atom+Function         Bfn.  Coefficient  Atom+Function  
  ----- ------------  ---------------      ----- ------------  ---------------
    12      0.401428  1 N  py                35     -0.401428  2 N  py         
    16      0.358731  1 N  py                39     -0.358731  2 N  py         
     8      0.291729  1 N  py                31     -0.291729  2 N  py         
    11      0.224790  1 N  px                34     -0.224790  2 N  px         
    15      0.200880  1 N  px                38     -0.200880  2 N  px         

 Vector    9  Occ=0.000000D+00  E=-3.491970D-02  Symmetry=eg
              MO Center=  4.1D-18, -1.3D-17, -6.1D-16, r^2= 1.7D+00
   Bfn.  Coefficient  Atom+Function         Bfn.  Coefficient  Atom+Function  
  ----- ------------  ---------------      ----- ------------  ---------------
    11      0.401428  1 N  px                34     -0.401428  2 N  px         
    15      0.358731  1 N  px                38     -0.358731  2 N  px         
     7      0.291729  1 N  px                30     -0.291729  2 N  px         
    12     -0.224790  1 N  py                35      0.224790  2 N  py         
    16     -0.200880  1 N  py                39      0.200880  2 N  py         

 Vector   10  Occ=0.000000D+00  E= 6.246996D-02  Symmetry=a1g
              MO Center=  2.2D-16,  2.3D-16, -8.6D-14, r^2= 6.3D+00
   Bfn.  Coefficient  Atom+Function         Bfn.  Coefficient  Atom+Function  
  ----- ------------  ---------------      ----- ------------  ---------------
    14      0.912029  1 N  s                 37      0.912029  2 N  s          
    10     -0.659125  1 N  s                 33     -0.659125  2 N  s          
    17     -0.333422  1 N  pz                40      0.333422  2 N  pz         
    13      0.216411  1 N  pz                36     -0.216411  2 N  pz         

 Vector   11  Occ=0.000000D+00  E= 8.044578D-02  Symmetry=a2u
              MO Center= -2.6D-18, -1.8D-18,  1.5D-13, r^2= 9.2D+00
   Bfn.  Coefficient  Atom+Function         Bfn.  Coefficient  Atom+Function  
  ----- ------------  ---------------      ----- ------------  ---------------
    14     11.874141  1 N  s                 37    -11.874141  2 N  s          
    17      3.896459  1 N  pz                40      3.896459  2 N  pz         
    13     -0.257447  1 N  pz                36     -0.257447  2 N  pz         

 Vector   12  Occ=0.000000D+00  E= 9.050180D-02  Symmetry=eu
              MO Center=  4.9D-18, -3.1D-18,  2.4D-15, r^2= 6.8D+00
   Bfn.  Coefficient  Atom+Function         Bfn.  Coefficient  Atom+Function  
  ----- ------------  ---------------      ----- ------------  ---------------
    15      0.606234  1 N  px                38      0.606234  2 N  px         
    11     -0.222302  1 N  px                34     -0.222302  2 N  px         
    16     -0.187576  1 N  py                39     -0.187576  2 N  py         

 Vector   13  Occ=0.000000D+00  E= 9.050180D-02  Symmetry=eu
              MO Center=  1.4D-19,  9.6D-19, -5.5D-15, r^2= 6.8D+00
   Bfn.  Coefficient  Atom+Function         Bfn.  Coefficient  Atom+Function  
  ----- ------------  ---------------      ----- ------------  ---------------
    16      0.606234  1 N  py                39      0.606234  2 N  py         
    12     -0.222302  1 N  py                35     -0.222302  2 N  py         
    15      0.187576  1 N  px                38      0.187576  2 N  px         

 Vector   14  Occ=0.000000D+00  E= 1.408577D-01  Symmetry=a1g
              MO Center=  8.5D-17,  7.0D-17, -1.3D-13, r^2= 7.6D+00
   Bfn.  Coefficient  Atom+Function         Bfn.  Coefficient  Atom+Function  
  ----- ------------  ---------------      ----- ------------  ---------------
    17      1.570924  1 N  pz                40     -1.570924  2 N  pz         
    10     -0.418221  1 N  s                 33     -0.418221  2 N  s          

 Vector   15  Occ=0.000000D+00  E= 1.731472D-01  Symmetry=eg
              MO Center=  1.5D-17,  8.1D-18,  0.0D+00, r^2= 8.3D+00
   Bfn.  Coefficient  Atom+Function         Bfn.  Coefficient  Atom+Function  
  ----- ------------  ---------------      ----- ------------  ---------------
    15      2.223749  1 N  px                38     -2.223749  2 N  px         
    11     -0.478850  1 N  px                34      0.478850  2 N  px         
    16     -0.201000  1 N  py                39      0.201000  2 N  py         

 Vector   16  Occ=0.000000D+00  E= 1.731472D-01  Symmetry=eg
              MO Center=  2.6D-22,  2.8D-21,  5.8D-15, r^2= 8.3D+00
   Bfn.  Coefficient  Atom+Function         Bfn.  Coefficient  Atom+Function  
  ----- ------------  ---------------      ----- ------------  ---------------
    16      2.223749  1 N  py                39     -2.223749  2 N  py         
    12     -0.478850  1 N  py                35      0.478850  2 N  py         
    15      0.201000  1 N  px                38     -0.201000  2 N  px         

 Vector   17  Occ=0.000000D+00  E= 2.578764D-01  Symmetry=a2u
              MO Center=  2.7D-17,  7.5D-17,  3.0D-13, r^2= 8.9D+00
   Bfn.  Coefficient  Atom+Function         Bfn.  Coefficient  Atom+Function  
  ----- ------------  ---------------      ----- ------------  ---------------
    14     41.043943  1 N  s                 37    -41.043943  2 N  s          
    17     10.805356  1 N  pz                40     10.805356  2 N  pz         
    10     -0.755946  1 N  s                 33      0.755946  2 N  s          
    13      0.336164  1 N  pz                36      0.336164  2 N  pz         

 Vector   18  Occ=0.000000D+00  E= 5.123526D-01  Symmetry=a2u
              MO Center= -4.3D-17,  1.4D-16,  6.7D-15, r^2= 3.5D+00
   Bfn.  Coefficient  Atom+Function         Bfn.  Coefficient  Atom+Function  
  ----- ------------  ---------------      ----- ------------  ---------------
    10      5.161748  1 N  s                 33     -5.161748  2 N  s          
    14     -4.490085  1 N  s                 37      4.490085  2 N  s          
    13      3.297161  1 N  pz                36      3.297161  2 N  pz         
    17     -1.630968  1 N  pz                40     -1.630968  2 N  pz         
     6      0.189360  1 N  s                 29     -0.189360  2 N  s          


 center of mass
 --------------
 x =   0.00000000 y =   0.00000000 z =   0.00000000

 moments of inertia (a.u.)
 ------------------
          29.652829099508           0.000000000000           0.000000000000
           0.000000000000          29.652829099508           0.000000000000
           0.000000000000           0.000000000000           0.000000000000

     Multipole analysis of the density
     ---------------------------------

     L   x y z        total         alpha         beta         nuclear
     -   - - -        -----         -----         ----         -------
     0   0 0 0     -0.000000     -7.000000     -7.000000     14.000000

     1   1 0 0      0.000000      0.000000      0.000000      0.000000
     1   0 1 0      0.000000      0.000000      0.000000      0.000000
     1   0 0 1      0.000000      0.000000      0.000000      0.000000

     2   2 0 0     -7.657774     -3.828887     -3.828887      0.000000
     2   1 1 0      0.000000      0.000000      0.000000      0.000000
     2   1 0 1     -0.000000     -0.000000     -0.000000      0.000000
     2   0 2 0     -7.657774     -3.828887     -3.828887      0.000000
     2   0 1 1     -0.000000     -0.000000     -0.000000      0.000000
     2   0 0 2     -8.929705    -11.876435    -11.876435     14.823164


 Parallel integral file used       3 records with       0 large values

 Line search: 
     step= 1.00 grad=-2.8D-04 hess= 3.4D-04 energy=   -109.560704 mode=bracket 
 new step= 0.41                   predicted energy=   -109.560822

          --------
          Step   1
          --------


                         Geometry "geometry" -> "geometry"
                         ---------------------------------

 Output coordinates in angstroms (scale by  1.889725989 to convert to a.u.)

  No.       Tag          Charge          X              Y              Z
 ---- ---------------- ---------- -------------- -------------- --------------
    1 N                    7.0000     0.00000000     0.00000000    -0.54774521
    2 N                    7.0000     0.00000000     0.00000000     0.54774521

      Atomic Mass 
      ----------- 

      N                 14.003070


 Effective nuclear repulsion energy (a.u.)      23.6694769794

            Nuclear Dipole moment (a.u.) 
            ----------------------------
        X                 Y               Z
 ---------------- ---------------- ----------------
     0.0000000000     0.0000000000     0.0000000000

      Symmetry information
      --------------------

 Group name             D4h       
 Group number             28
 Group order              16
 No. of unique centers     1

      Symmetry unique atoms

     1


                                 NWChem DFT Module
                                 -----------------


                                  N2 dft optimize


  Caching 1-el integrals 

            General Information
            -------------------
          SCF calculation type: DFT
          Wavefunction type:  closed shell.
          No. of atoms     :     2
          No. of electrons :    14
           Alpha electrons :     7
            Beta electrons :     7
          Charge           :     0
          Spin multiplicity:     1
          Use of symmetry is: on ; symmetry adaption is: on 
          Maximum number of iterations:  30
          AO basis - number of functions:    46
                     number of shells:    20
          Convergence on energy requested: 1.00D-06
          Convergence on density requested: 1.00D-05
          Convergence on gradient requested: 5.00D-04

              XC Information
              --------------
                         B3LYP Method XC Potential
                     Hartree-Fock (Exact) Exchange  0.200          
                        Slater Exchange Functional  0.800 local    
                    Becke 1988 Exchange Functional  0.720 non-local
              Lee-Yang-Parr Correlation Functional  0.810          
                  VWN I RPA Correlation Functional  0.190 local    

             Grid Information
             ----------------
          Grid used for XC integration:  medium    
          Radial quadrature: Mura-Knowles        
          Angular quadrature: Lebedev. 
          Tag              B.-S. Rad. Rad. Pts. Rad. Cut. Ang. Pts.
          ---              ---------- --------- --------- ---------
          N                   0.65       49           8.0       434
          Grid pruning is: on 
          Number of quadrature shells:    49
          Spatial weights used:  Erf1

          Convergence Information
          -----------------------
          Convergence aids based upon iterative change in 
          total energy or number of iterations. 
          Levelshifting, if invoked, occurs when the 
          HOMO/LUMO gap drops below (HL_TOL): 1.00D-02
          DIIS, if invoked, will attempt to extrapolate 
          using up to (NFOCK): 10 stored Fock matrices.

                    Damping( 0%)  Levelshifting(0.5)       DIIS
                  --------------- ------------------- ---------------
          dE  on:    start            ASAP                start   
          dE off:    2 iters         30 iters            30 iters 


      Screening Tolerance Information
      -------------------------------
          Density screening/tol_rho: 1.00D-10
          AO Gaussian exp screening on grid/accAOfunc:  14
          CD Gaussian exp screening on grid/accCDfunc:  20
          XC Gaussian exp screening on grid/accXCfunc:  20
          Schwarz screening/accCoul: 1.00D-08


 Loading old vectors from job with title :

N2 dft optimize


      Symmetry analysis of molecular orbitals - initial
      -------------------------------------------------

  Numbering of irreducible representations: 

     1 a1g         2 a1u         3 a2g         4 a2u         5 b1g     
     6 b1u         7 b2g         8 b2u         9 eg         10 eu      

  Orbital symmetries:

     1 a1g         2 a2u         3 a1g         4 a2u         5 eu      
     6 eu          7 a1g         8 eg          9 eg         10 a1g     
    11 a2u        12 eu         13 eu         14 a1g        15 eg      
    16 eg         17 a2u     

   Time after variat. SCF:      0.9
   Time prior to 1st pass:      0.9

 Integral file          = ./N2.aoints.0
 Record size in doubles =  65536        No. of integs per rec  =  43688
 Max. records in memory =      3        Max. records in file   = 187879
 No. of bits per label  =      8        No. of bits per value  =     64


 #quartets = 1.511D+04 #integrals = 1.160D+05 #direct =  0.0% #cached =100.0%


 Grid_pts file          = ./N2.gridpts.0
 Record size in doubles =  12289        No. of grid_pts per rec  =   3070
 Max. records in memory =      9        Max. recs in file   =   1001943


           Memory utilization after 1st SCF pass: 
           Heap Space remaining (MW):       32.46            32458735
          Stack Space remaining (MW):       32.77            32767653

   convergence    iter        energy       DeltaE   RMS-Dens  Diis-err    time
 ---------------- ----- ----------------- --------- --------- ---------  ------
 d= 0,ls=0.0,diis     1   -109.5607882097 -1.33D+02  4.21D-04  4.70D-04     1.0
 d= 0,ls=0.0,diis     2   -109.5608155670 -2.74D-05  1.96D-04  6.90D-05     1.0
 d= 0,ls=0.0,diis     3   -109.5608215080 -5.94D-06  4.52D-05  8.30D-06     1.1
 d= 0,ls=0.0,diis     4   -109.5608223649 -8.57D-07  3.01D-06  6.44D-09     1.1


         Total DFT energy =     -109.560822364860
      One electron energy =     -194.587352428247
           Coulomb energy =       75.054602221604
    Exchange-Corr. energy =      -13.697549137665
 Nuclear repulsion energy =       23.669476979448

 Numeric. integr. density =       13.999999916453

     Total iterative time =      0.2s



                  Occupations of the irreducible representations
                  ----------------------------------------------

                     irrep           alpha         beta
                     --------     --------     --------
                     a1g               3.0          3.0
                     a1u               0.0          0.0
                     a2g               0.0          0.0
                     a2u               2.0          2.0
                     b1g               0.0          0.0
                     b1u               0.0          0.0
                     b2g               0.0          0.0
                     b2u               0.0          0.0
                     eg                0.0          0.0
                     eu                2.0          2.0


                       DFT Final Molecular Orbital Analysis
                       ------------------------------------

 Vector    1  Occ=2.000000D+00  E=-1.442838D+01  Symmetry=a1g
              MO Center= -1.9D-18,  1.7D-18,  1.5D-12, r^2= 3.2D-01
   Bfn.  Coefficient  Atom+Function         Bfn.  Coefficient  Atom+Function  
  ----- ------------  ---------------      ----- ------------  ---------------
     1      0.394315  1 N  s                 24      0.394315  2 N  s          
     2      0.326936  1 N  s                 25      0.326936  2 N  s          

 Vector    2  Occ=2.000000D+00  E=-1.442654D+01  Symmetry=a2u
              MO Center=  7.5D-32,  1.3D-29, -1.5D-12, r^2= 3.2D-01
   Bfn.  Coefficient  Atom+Function         Bfn.  Coefficient  Atom+Function  
  ----- ------------  ---------------      ----- ------------  ---------------
     1      0.394450  1 N  s                 24     -0.394450  2 N  s          
     2      0.327047  1 N  s                 25     -0.327047  2 N  s          

 Vector    3  Occ=2.000000D+00  E=-1.140763D+00  Symmetry=a1g
              MO Center=  2.8D-34, -2.5D-34,  5.6D-17, r^2= 4.3D-01
   Bfn.  Coefficient  Atom+Function         Bfn.  Coefficient  Atom+Function  
  ----- ------------  ---------------      ----- ------------  ---------------
     6      0.388087  1 N  s                 29      0.388087  2 N  s          
    10      0.169137  1 N  s                 33      0.169137  2 N  s          

 Vector    4  Occ=2.000000D+00  E=-5.606315D-01  Symmetry=a2u
              MO Center= -9.2D-34,  5.9D-33, -1.1D-16, r^2= 1.3D+00
   Bfn.  Coefficient  Atom+Function         Bfn.  Coefficient  Atom+Function  
  ----- ------------  ---------------      ----- ------------  ---------------
    10      0.508107  1 N  s                 33     -0.508107  2 N  s          
     6      0.399098  1 N  s                 29     -0.399098  2 N  s          
    14     -0.186685  1 N  s                 37      0.186685  2 N  s          

 Vector    5  Occ=2.000000D+00  E=-4.768986D-01  Symmetry=eu
              MO Center=  1.4D-24, -3.5D-26,  0.0D+00, r^2= 9.0D-01
   Bfn.  Coefficient  Atom+Function         Bfn.  Coefficient  Atom+Function  
  ----- ------------  ---------------      ----- ------------  ---------------
     7      0.310518  1 N  px                30      0.310518  2 N  px         
    11      0.210846  1 N  px                34      0.210846  2 N  px         
     3      0.207516  1 N  px                26      0.207516  2 N  px         

 Vector    6  Occ=2.000000D+00  E=-4.768986D-01  Symmetry=eu
              MO Center= -3.4D-17, -6.6D-18,  5.6D-16, r^2= 9.0D-01
   Bfn.  Coefficient  Atom+Function         Bfn.  Coefficient  Atom+Function  
  ----- ------------  ---------------      ----- ------------  ---------------
     8      0.310518  1 N  py                31      0.310518  2 N  py         
    12      0.210846  1 N  py                35      0.210846  2 N  py         
     4      0.207516  1 N  py                27      0.207516  2 N  py         

 Vector    7  Occ=2.000000D+00  E=-4.410009D-01  Symmetry=a1g
              MO Center= -1.2D-20, -4.9D-19, -5.6D-17, r^2= 1.3D+00
   Bfn.  Coefficient  Atom+Function         Bfn.  Coefficient  Atom+Function  
  ----- ------------  ---------------      ----- ------------  ---------------
     9      0.297501  1 N  pz                32     -0.297501  2 N  pz         
    10     -0.262601  1 N  s                 33     -0.262601  2 N  s          
     5      0.218096  1 N  pz                28     -0.218096  2 N  pz         
    13      0.176225  1 N  pz                36     -0.176225  2 N  pz         

 Vector    8  Occ=0.000000D+00  E=-3.783558D-02  Symmetry=eg
              MO Center= -3.0D-18, -4.8D-19,  6.1D-16, r^2= 1.7D+00
   Bfn.  Coefficient  Atom+Function         Bfn.  Coefficient  Atom+Function  
  ----- ------------  ---------------      ----- ------------  ---------------
    12      0.406270  1 N  py                35     -0.406270  2 N  py         
    16      0.354257  1 N  py                39     -0.354257  2 N  py         
     8      0.297137  1 N  py                31     -0.297137  2 N  py         
    11     -0.211487  1 N  px                34      0.211487  2 N  px         
     4      0.195277  1 N  py                27     -0.195277  2 N  py         

 Vector    9  Occ=0.000000D+00  E=-3.783558D-02  Symmetry=eg
              MO Center=  1.3D-17, -6.4D-18, -1.1D-16, r^2= 1.7D+00
   Bfn.  Coefficient  Atom+Function         Bfn.  Coefficient  Atom+Function  
  ----- ------------  ---------------      ----- ------------  ---------------
    11      0.406270  1 N  px                34     -0.406270  2 N  px         
    15      0.354257  1 N  px                38     -0.354257  2 N  px         
     7      0.297137  1 N  px                30     -0.297137  2 N  px         
    12      0.211487  1 N  py                35     -0.211487  2 N  py         
     3      0.195277  1 N  px                26     -0.195277  2 N  px         

 Vector   10  Occ=0.000000D+00  E= 6.229828D-02  Symmetry=a1g
              MO Center=  3.9D-21,  1.6D-19,  2.8D-17, r^2= 6.3D+00
   Bfn.  Coefficient  Atom+Function         Bfn.  Coefficient  Atom+Function  
  ----- ------------  ---------------      ----- ------------  ---------------
    14      0.912387  1 N  s                 37      0.912387  2 N  s          
    10     -0.659753  1 N  s                 33     -0.659753  2 N  s          
    17     -0.329669  1 N  pz                40      0.329669  2 N  pz         
    13      0.215110  1 N  pz                36     -0.215110  2 N  pz         

 Vector   11  Occ=0.000000D+00  E= 8.026824D-02  Symmetry=a2u
              MO Center= -2.5D-18, -3.3D-18,  1.4D-13, r^2= 9.2D+00
   Bfn.  Coefficient  Atom+Function         Bfn.  Coefficient  Atom+Function  
  ----- ------------  ---------------      ----- ------------  ---------------
    14     11.630023  1 N  s                 37    -11.630023  2 N  s          
    17      3.851109  1 N  pz                40      3.851109  2 N  pz         
    13     -0.253011  1 N  pz                36     -0.253011  2 N  pz         

 Vector   12  Occ=0.000000D+00  E= 9.064598D-02  Symmetry=eu
              MO Center= -5.1D-17, -1.3D-17, -1.3D-15, r^2= 6.8D+00
   Bfn.  Coefficient  Atom+Function         Bfn.  Coefficient  Atom+Function  
  ----- ------------  ---------------      ----- ------------  ---------------
    15      0.618510  1 N  px                38      0.618510  2 N  px         
    11     -0.227847  1 N  px                34     -0.227847  2 N  px         

 Vector   13  Occ=0.000000D+00  E= 9.064598D-02  Symmetry=eu
              MO Center=  3.5D-18, -1.6D-17, -5.4D-15, r^2= 6.8D+00
   Bfn.  Coefficient  Atom+Function         Bfn.  Coefficient  Atom+Function  
  ----- ------------  ---------------      ----- ------------  ---------------
    16      0.618510  1 N  py                39      0.618510  2 N  py         
    12     -0.227847  1 N  py                35     -0.227847  2 N  py         

 Vector   14  Occ=0.000000D+00  E= 1.407528D-01  Symmetry=a1g
              MO Center=  1.0D-17,  2.8D-17, -4.1D-14, r^2= 7.6D+00
   Bfn.  Coefficient  Atom+Function         Bfn.  Coefficient  Atom+Function  
  ----- ------------  ---------------      ----- ------------  ---------------
    17      1.563743  1 N  pz                40     -1.563743  2 N  pz         
    10     -0.416442  1 N  s                 33     -0.416442  2 N  s          

 Vector   15  Occ=0.000000D+00  E= 1.725873D-01  Symmetry=eg
              MO Center=  4.4D-18,  4.8D-18,  2.2D-15, r^2= 8.3D+00
   Bfn.  Coefficient  Atom+Function         Bfn.  Coefficient  Atom+Function  
  ----- ------------  ---------------      ----- ------------  ---------------
    16      2.205030  1 N  py                39     -2.205030  2 N  py         
    12     -0.471734  1 N  py                35      0.471734  2 N  py         
    15      0.274431  1 N  px                38     -0.274431  2 N  px         

 Vector   16  Occ=0.000000D+00  E= 1.725873D-01  Symmetry=eg
              MO Center=  1.9D-17,  2.1D-17,  2.2D-15, r^2= 8.3D+00
   Bfn.  Coefficient  Atom+Function         Bfn.  Coefficient  Atom+Function  
  ----- ------------  ---------------      ----- ------------  ---------------
    15      2.205030  1 N  px                38     -2.205030  2 N  px         
    11     -0.471734  1 N  px                34      0.471734  2 N  px         
    16     -0.274431  1 N  py                39      0.274431  2 N  py         

 Vector   17  Occ=0.000000D+00  E= 2.576907D-01  Symmetry=a2u
              MO Center= -6.7D-18, -5.7D-19, -2.1D-13, r^2= 8.9D+00
   Bfn.  Coefficient  Atom+Function         Bfn.  Coefficient  Atom+Function  
  ----- ------------  ---------------      ----- ------------  ---------------
    14     40.333005  1 N  s                 37    -40.333005  2 N  s          
    17     10.681860  1 N  pz                40     10.681860  2 N  pz         
    10     -0.760739  1 N  s                 33      0.760739  2 N  s          
    13      0.333703  1 N  pz                36      0.333703  2 N  pz         

 Vector   18  Occ=0.000000D+00  E= 5.075219D-01  Symmetry=a2u
              MO Center= -7.3D-17,  3.3D-19, -2.2D-14, r^2= 3.4D+00
   Bfn.  Coefficient  Atom+Function         Bfn.  Coefficient  Atom+Function  
  ----- ------------  ---------------      ----- ------------  ---------------
    10      5.015149  1 N  s                 33     -5.015149  2 N  s          
    14     -4.511596  1 N  s                 37      4.511596  2 N  s          
    13      3.228820  1 N  pz                36      3.228820  2 N  pz         
    17     -1.640001  1 N  pz                40     -1.640001  2 N  pz         
     6      0.193502  1 N  s                 29     -0.193502  2 N  s          


 center of mass
 --------------
 x =   0.00000000 y =   0.00000000 z =   0.00000000

 moments of inertia (a.u.)
 ------------------
          30.005999742503           0.000000000000           0.000000000000
           0.000000000000          30.005999742503           0.000000000000
           0.000000000000           0.000000000000           0.000000000000

     Multipole analysis of the density
     ---------------------------------

     L   x y z        total         alpha         beta         nuclear
     -   - - -        -----         -----         ----         -------
     0   0 0 0     -0.000000     -7.000000     -7.000000     14.000000

     1   1 0 0      0.000000      0.000000      0.000000      0.000000
     1   0 1 0      0.000000      0.000000      0.000000      0.000000
     1   0 0 1     -0.000000     -0.000000     -0.000000      0.000000

     2   2 0 0     -7.672829     -3.836415     -3.836415      0.000000
     2   1 1 0      0.000000      0.000000      0.000000      0.000000
     2   1 0 1      0.000000      0.000000      0.000000      0.000000
     2   0 2 0     -7.672829     -3.836415     -3.836415      0.000000
     2   0 1 1      0.000000      0.000000      0.000000      0.000000
     2   0 0 2     -8.934468    -11.967089    -11.967089     14.999711


 Parallel integral file used       3 records with       0 large values



                            NWChem DFT Gradient Module
                            --------------------------


                                  N2 dft optimize



  charge          =   0.00
  wavefunction    = closed shell

  Using symmetry


                         DFT ENERGY GRADIENTS

    atom               coordinates                        gradient
                 x          y          z           x          y          z
   1 N       0.000000   0.000000  -1.035088    0.000000   0.000000  -0.000136
   2 N       0.000000   0.000000   1.035088    0.000000   0.000000   0.000136

                 ----------------------------------------
                 |  Time  |  1-e(secs)   |  2-e(secs)   |
                 ----------------------------------------
                 |  CPU   |       0.00   |       0.22   |
                 ----------------------------------------
                 |  WALL  |       0.00   |       0.22   |
                 ----------------------------------------

  Step       Energy      Delta E   Gmax     Grms     Xrms     Xmax   Walltime
  ---- ---------------- -------- -------- -------- -------- -------- --------
@    1    -109.56082236 -5.8D-05  0.00014  0.00014  0.00246  0.00426      1.5
                                     ok       ok                    



                                Z-matrix (autoz)
                                -------- 

 Units are Angstrom for bonds and degrees for angles

      Type          Name      I     J     K     L     M      Value     Gradient
      ----------- --------  ----- ----- ----- ----- ----- ---------- ----------
    1 Stretch                  1     2                       1.09549    0.00014


                                 NWChem DFT Module
                                 -----------------


                                  N2 dft optimize


  Caching 1-el integrals 

            General Information
            -------------------
          SCF calculation type: DFT
          Wavefunction type:  closed shell.
          No. of atoms     :     2
          No. of electrons :    14
           Alpha electrons :     7
            Beta electrons :     7
          Charge           :     0
          Spin multiplicity:     1
          Use of symmetry is: on ; symmetry adaption is: on 
          Maximum number of iterations:  30
          AO basis - number of functions:    46
                     number of shells:    20
          Convergence on energy requested: 1.00D-06
          Convergence on density requested: 1.00D-05
          Convergence on gradient requested: 5.00D-04

              XC Information
              --------------
                         B3LYP Method XC Potential
                     Hartree-Fock (Exact) Exchange  0.200          
                        Slater Exchange Functional  0.800 local    
                    Becke 1988 Exchange Functional  0.720 non-local
              Lee-Yang-Parr Correlation Functional  0.810          
                  VWN I RPA Correlation Functional  0.190 local    

             Grid Information
             ----------------
          Grid used for XC integration:  medium    
          Radial quadrature: Mura-Knowles        
          Angular quadrature: Lebedev. 
          Tag              B.-S. Rad. Rad. Pts. Rad. Cut. Ang. Pts.
          ---              ---------- --------- --------- ---------
          N                   0.65       49           8.0       434
          Grid pruning is: on 
          Number of quadrature shells:    49
          Spatial weights used:  Erf1

          Convergence Information
          -----------------------
          Convergence aids based upon iterative change in 
          total energy or number of iterations. 
          Levelshifting, if invoked, occurs when the 
          HOMO/LUMO gap drops below (HL_TOL): 1.00D-02
          DIIS, if invoked, will attempt to extrapolate 
          using up to (NFOCK): 10 stored Fock matrices.

                    Damping( 0%)  Levelshifting(0.5)       DIIS
                  --------------- ------------------- ---------------
          dE  on:    start            ASAP                start   
          dE off:    2 iters         30 iters            30 iters 


      Screening Tolerance Information
      -------------------------------
          Density screening/tol_rho: 1.00D-10
          AO Gaussian exp screening on grid/accAOfunc:  14
          CD Gaussian exp screening on grid/accCDfunc:  20
          XC Gaussian exp screening on grid/accXCfunc:  20
          Schwarz screening/accCoul: 1.00D-08


 Loading old vectors from job with title :

N2 dft optimize


      Symmetry analysis of molecular orbitals - initial
      -------------------------------------------------

  Numbering of irreducible representations: 

     1 a1g         2 a1u         3 a2g         4 a2u         5 b1g     
     6 b1u         7 b2g         8 b2u         9 eg         10 eu      

  Orbital symmetries:

     1 a1g         2 a2u         3 a1g         4 a2u         5 eu      
     6 eu          7 a1g         8 eg          9 eg         10 a1g     
    11 a2u        12 eu         13 eu         14 a1g        15 eg      
    16 eg         17 a2u     

   Time after variat. SCF:      1.4
   Time prior to 1st pass:      1.4

 Integral file          = ./N2.aoints.0
 Record size in doubles =  65536        No. of integs per rec  =  43688
 Max. records in memory =      3        Max. records in file   = 187879
 No. of bits per label  =      8        No. of bits per value  =     64


 #quartets = 1.511D+04 #integrals = 1.160D+05 #direct =  0.0% #cached =100.0%


 Grid_pts file          = ./N2.gridpts.0
 Record size in doubles =  12289        No. of grid_pts per rec  =   3070
 Max. records in memory =      9        Max. recs in file   =   1001943


           Memory utilization after 1st SCF pass: 
           Heap Space remaining (MW):       32.46            32458735
          Stack Space remaining (MW):       32.77            32767653

   convergence    iter        energy       DeltaE   RMS-Dens  Diis-err    time
 ---------------- ----- ----------------- --------- --------- ---------  ------
 d= 0,ls=0.0,diis     1   -109.5608223693 -1.33D+02  3.11D-06  2.42D-08     1.6
 d= 0,ls=0.0,diis     2   -109.5608223707 -1.39D-09  1.37D-06  3.70D-09     1.6


         Total DFT energy =     -109.560822370653
      One electron energy =     -194.589612074877
           Coulomb energy =       75.055970595288
    Exchange-Corr. energy =      -13.697658264074
 Nuclear repulsion energy =       23.670477373010

 Numeric. integr. density =       13.999999915738

     Total iterative time =      0.2s



                  Occupations of the irreducible representations
                  ----------------------------------------------

                     irrep           alpha         beta
                     --------     --------     --------
                     a1g               3.0          3.0
                     a1u               0.0          0.0
                     a2g               0.0          0.0
                     a2u               2.0          2.0
                     b1g               0.0          0.0
                     b1u               0.0          0.0
                     b2g               0.0          0.0
                     b2u               0.0          0.0
                     eg                0.0          0.0
                     eu                2.0          2.0


                       DFT Final Molecular Orbital Analysis
                       ------------------------------------

 Vector    1  Occ=2.000000D+00  E=-1.442836D+01  Symmetry=a1g
              MO Center=  7.7D-19, -1.1D-18, -5.3D-13, r^2= 3.2D-01
   Bfn.  Coefficient  Atom+Function         Bfn.  Coefficient  Atom+Function  
  ----- ------------  ---------------      ----- ------------  ---------------
     1      0.394314  1 N  s                 24      0.394314  2 N  s          
     2      0.326936  1 N  s                 25      0.326936  2 N  s          

 Vector    2  Occ=2.000000D+00  E=-1.442652D+01  Symmetry=a2u
              MO Center= -9.5D-32,  2.3D-30,  5.3D-13, r^2= 3.2D-01
   Bfn.  Coefficient  Atom+Function         Bfn.  Coefficient  Atom+Function  
  ----- ------------  ---------------      ----- ------------  ---------------
     1      0.394450  1 N  s                 24     -0.394450  2 N  s          
     2      0.327046  1 N  s                 25     -0.327046  2 N  s          

 Vector    3  Occ=2.000000D+00  E=-1.140787D+00  Symmetry=a1g
              MO Center=  2.7D-35, -3.7D-35, -8.3D-17, r^2= 4.3D-01
   Bfn.  Coefficient  Atom+Function         Bfn.  Coefficient  Atom+Function  
  ----- ------------  ---------------      ----- ------------  ---------------
     6      0.388085  1 N  s                 29      0.388085  2 N  s          
    10      0.169128  1 N  s                 33      0.169128  2 N  s          

 Vector    4  Occ=2.000000D+00  E=-5.606142D-01  Symmetry=a2u
              MO Center= -1.7D-18, -4.0D-18, -1.1D-15, r^2= 1.3D+00
   Bfn.  Coefficient  Atom+Function         Bfn.  Coefficient  Atom+Function  
  ----- ------------  ---------------      ----- ------------  ---------------
    10      0.508123  1 N  s                 33     -0.508123  2 N  s          
     6      0.399089  1 N  s                 29     -0.399089  2 N  s          
    14     -0.186702  1 N  s                 37      0.186702  2 N  s          

 Vector    5  Occ=2.000000D+00  E=-4.769096D-01  Symmetry=eu
              MO Center=  1.8D-17,  4.4D-18, -3.3D-16, r^2= 9.0D-01
   Bfn.  Coefficient  Atom+Function         Bfn.  Coefficient  Atom+Function  
  ----- ------------  ---------------      ----- ------------  ---------------
     8      0.307740  1 N  py                31      0.307740  2 N  py         
    12      0.208954  1 N  py                35      0.208954  2 N  py         
     4      0.205661  1 N  py                27      0.205661  2 N  py         

 Vector    6  Occ=2.000000D+00  E=-4.769096D-01  Symmetry=eu
              MO Center= -1.9D-16,  4.7D-17, -1.4D-16, r^2= 9.0D-01
   Bfn.  Coefficient  Atom+Function         Bfn.  Coefficient  Atom+Function  
  ----- ------------  ---------------      ----- ------------  ---------------
     7      0.307740  1 N  px                30      0.307740  2 N  px         
    11      0.208954  1 N  px                34      0.208954  2 N  px         
     3      0.205661  1 N  px                26      0.205661  2 N  px         

 Vector    7  Occ=2.000000D+00  E=-4.409982D-01  Symmetry=a1g
              MO Center=  5.7D-17,  7.2D-17,  2.1D-15, r^2= 1.3D+00
   Bfn.  Coefficient  Atom+Function         Bfn.  Coefficient  Atom+Function  
  ----- ------------  ---------------      ----- ------------  ---------------
     9      0.297497  1 N  pz                32     -0.297497  2 N  pz         
    10     -0.262607  1 N  s                 33     -0.262607  2 N  s          
     5      0.218097  1 N  pz                28     -0.218097  2 N  pz         
    13      0.176222  1 N  pz                36     -0.176222  2 N  pz         

 Vector    8  Occ=0.000000D+00  E=-3.781102D-02  Symmetry=eg
              MO Center=  2.4D-17, -3.4D-17,  2.2D-16, r^2= 1.7D+00
   Bfn.  Coefficient  Atom+Function         Bfn.  Coefficient  Atom+Function  
  ----- ------------  ---------------      ----- ------------  ---------------
    11      0.438375  1 N  px                34     -0.438375  2 N  px         
    15      0.382331  1 N  px                38     -0.382331  2 N  px         
     7      0.320603  1 N  px                30     -0.320603  2 N  px         
     3      0.210695  1 N  px                26     -0.210695  2 N  px         

 Vector    9  Occ=0.000000D+00  E=-3.781102D-02  Symmetry=eg
              MO Center=  1.2D-23,  3.8D-23,  3.3D-16, r^2= 1.7D+00
   Bfn.  Coefficient  Atom+Function         Bfn.  Coefficient  Atom+Function  
  ----- ------------  ---------------      ----- ------------  ---------------
    12      0.438375  1 N  py                35     -0.438375  2 N  py         
    16      0.382331  1 N  py                39     -0.382331  2 N  py         
     8      0.320603  1 N  py                31     -0.320603  2 N  py         
     4      0.210695  1 N  py                27     -0.210695  2 N  py         

 Vector   10  Occ=0.000000D+00  E= 6.230033D-02  Symmetry=a1g
              MO Center= -5.6D-17,  6.3D-18,  8.3D-17, r^2= 6.3D+00
   Bfn.  Coefficient  Atom+Function         Bfn.  Coefficient  Atom+Function  
  ----- ------------  ---------------      ----- ------------  ---------------
    14      0.912385  1 N  s                 37      0.912385  2 N  s          
    10     -0.659751  1 N  s                 33     -0.659751  2 N  s          
    17     -0.329695  1 N  pz                40      0.329695  2 N  pz         
    13      0.215120  1 N  pz                36     -0.215120  2 N  pz         

 Vector   11  Occ=0.000000D+00  E= 8.027017D-02  Symmetry=a2u
              MO Center=  2.9D-18, -9.0D-19, -6.4D-14, r^2= 9.2D+00
   Bfn.  Coefficient  Atom+Function         Bfn.  Coefficient  Atom+Function  
  ----- ------------  ---------------      ----- ------------  ---------------
    14     11.631794  1 N  s                 37    -11.631794  2 N  s          
    17      3.851444  1 N  pz                40      3.851444  2 N  pz         
    13     -0.253044  1 N  pz                36     -0.253044  2 N  pz         

 Vector   12  Occ=0.000000D+00  E= 9.064550D-02  Symmetry=eu
              MO Center= -4.6D-18,  8.1D-18,  8.0D-15, r^2= 6.8D+00
   Bfn.  Coefficient  Atom+Function         Bfn.  Coefficient  Atom+Function  
  ----- ------------  ---------------      ----- ------------  ---------------
    16      0.577997  1 N  py                39      0.577997  2 N  py         
    15     -0.263562  1 N  px                38     -0.263562  2 N  px         
    12     -0.212917  1 N  py                35     -0.212917  2 N  py         

 Vector   13  Occ=0.000000D+00  E= 9.064550D-02  Symmetry=eu
              MO Center= -7.5D-19, -1.8D-19,  4.3D-15, r^2= 6.8D+00
   Bfn.  Coefficient  Atom+Function         Bfn.  Coefficient  Atom+Function  
  ----- ------------  ---------------      ----- ------------  ---------------
    15      0.577997  1 N  px                38      0.577997  2 N  px         
    16      0.263562  1 N  py                39      0.263562  2 N  py         
    11     -0.212917  1 N  px                34     -0.212917  2 N  px         

 Vector   14  Occ=0.000000D+00  E= 1.407540D-01  Symmetry=a1g
              MO Center=  3.2D-17, -1.1D-17,  7.0D-14, r^2= 7.6D+00
   Bfn.  Coefficient  Atom+Function         Bfn.  Coefficient  Atom+Function  
  ----- ------------  ---------------      ----- ------------  ---------------
    17      1.563795  1 N  pz                40     -1.563795  2 N  pz         
    10     -0.416455  1 N  s                 33     -0.416455  2 N  s          

[...]


  xc_inp: hfexch multiplicative factor not found.

                                 NWChem DFT Module
                                 -----------------


                                   N2 dft energy


  Caching 1-el integrals 
  itol2e modified to match energy
  convergence criterion.

            General Information
            -------------------
          SCF calculation type: DFT
          Wavefunction type:  closed shell.
          No. of atoms     :     2
          No. of electrons :    14
           Alpha electrons :     7
            Beta electrons :     7
          Charge           :     0
          Spin multiplicity:     1
          Use of symmetry is: on ; symmetry adaption is: on 
          Maximum number of iterations:  30
          AO basis - number of functions:    46
                     number of shells:    20
          Convergence on energy requested: 1.00D-07
          Convergence on density requested: 1.00D-05
          Convergence on gradient requested: 5.00D-04

              XC Information
              --------------
                     Hartree-Fock (Exact) Exchange  1.000          

          Convergence Information
          -----------------------
          Convergence aids based upon iterative change in 
          total energy or number of iterations. 
          Levelshifting, if invoked, occurs when the 
          HOMO/LUMO gap drops below (HL_TOL): 1.00D-02
          DIIS, if invoked, will attempt to extrapolate 
          using up to (NFOCK): 10 stored Fock matrices.

                    Damping( 0%)  Levelshifting(0.5)       DIIS
                  --------------- ------------------- ---------------
          dE  on:    start            ASAP                start   
          dE off:    2 iters         30 iters            30 iters 


      Screening Tolerance Information
      -------------------------------
          Density screening/tol_rho: 1.00D-11
          AO Gaussian exp screening on grid/accAOfunc:  16
          CD Gaussian exp screening on grid/accCDfunc:  20
          XC Gaussian exp screening on grid/accXCfunc:  20
          Schwarz screening/accCoul: 1.00D-08


 Loading old vectors from job with title :

N2 dft freq


      Symmetry analysis of molecular orbitals - initial
      -------------------------------------------------

  Numbering of irreducible representations: 

     1 a1g         2 a1u         3 a2g         4 a2u         5 b1g     
     6 b1u         7 b2g         8 b2u         9 eg         10 eu      

  Orbital symmetries:

     1 a1g         2 a2u         3 a1g         4 a2u         5 eu      
     6 eu          7 a1g         8 eg          9 eg         10 a1g     
    11 a2u        12 eu         13 eu         14 a1g        15 eg      
    16 eg         17 a2u     

   Time after variat. SCF:     15.0
   Time prior to 1st pass:     15.0

 Integral file          = ./N2.aoints.0
 Record size in doubles =  65536        No. of integs per rec  =  43688
 Max. records in memory =      3        Max. records in file   = 187875
 No. of bits per label  =      8        No. of bits per value  =     64


 #quartets = 1.511D+04 #integrals = 1.160D+05 #direct =  0.0% #cached =100.0%


           Memory utilization after 1st SCF pass: 
           Heap Space remaining (MW):       32.57            32569408
          Stack Space remaining (MW):       32.77            32767653

   convergence    iter        energy       DeltaE   RMS-Dens  Diis-err    time
 ---------------- ----- ----------------- --------- --------- ---------  ------
 d= 0,ls=0.0,diis     1   -108.9581515179 -1.33D+02  6.18D-03  3.71D-01    15.1
 d= 0,ls=0.0,diis     2   -108.9715000652 -1.33D-02  2.63D-03  5.02D-03    15.1
 d= 0,ls=0.0,diis     3   -108.9719923481 -4.92D-04  5.25D-04  2.92D-04    15.1
 d= 0,ls=0.0,diis     4   -108.9720303082 -3.80D-05  2.59D-04  1.75D-05    15.2
 d= 0,ls=0.0,diis     5   -108.9720338579 -3.55D-06  1.92D-05  2.27D-07    15.2
 d= 0,ls=0.0,diis     6   -108.9720339173 -5.94D-08  2.97D-06  5.27D-09    15.2


         Total DFT energy =     -108.972033917271
      One electron energy =     -194.276481746970
           Coulomb energy =       74.730446047251
    Exchange-Corr. energy =      -13.096475590562
 Nuclear repulsion energy =       23.670477373010

 Numeric. integr. density =        0.000000000000

     Total iterative time =      0.2s



                  Occupations of the irreducible representations
                  ----------------------------------------------

                     irrep           alpha         beta
                     --------     --------     --------
                     a1g               3.0          3.0
                     a1u               0.0          0.0
                     a2g               0.0          0.0
                     a2u               2.0          2.0
                     b1g               0.0          0.0
                     b1u               0.0          0.0
                     b2g               0.0          0.0
                     b2u               0.0          0.0
                     eg                0.0          0.0
                     eu                2.0          2.0


                       DFT Final Molecular Orbital Analysis
                       ------------------------------------

 Vector    1  Occ=2.000000D+00  E=-1.568845D+01  Symmetry=a1g
              MO Center=  6.4D-18,  8.5D-18,  2.0D-15, r^2= 3.2D-01
   Bfn.  Coefficient  Atom+Function         Bfn.  Coefficient  Atom+Function  
  ----- ------------  ---------------      ----- ------------  ---------------
     1      0.394290  1 N  s                 24      0.394290  2 N  s          
     2      0.330857  1 N  s                 25      0.330857  2 N  s          

 Vector    2  Occ=2.000000D+00  E=-1.568488D+01  Symmetry=a2u
              MO Center=  1.3D-20, -5.6D-21, -1.9D-15, r^2= 3.2D-01
   Bfn.  Coefficient  Atom+Function         Bfn.  Coefficient  Atom+Function  
  ----- ------------  ---------------      ----- ------------  ---------------
     1      0.394503  1 N  s                 24     -0.394503  2 N  s          
     2      0.331212  1 N  s                 25     -0.331212  2 N  s          

 Vector    3  Occ=2.000000D+00  E=-1.480447D+00  Symmetry=a1g
              MO Center= -1.6D-33, -2.2D-33, -1.4D-17, r^2= 4.4D-01
   Bfn.  Coefficient  Atom+Function         Bfn.  Coefficient  Atom+Function  
  ----- ------------  ---------------      ----- ------------  ---------------
     6      0.384720  1 N  s                 29      0.384720  2 N  s          
    10      0.172592  1 N  s                 33      0.172592  2 N  s          

 Vector    4  Occ=2.000000D+00  E=-7.796634D-01  Symmetry=a2u
              MO Center=  9.8D-34,  9.5D-34,  5.6D-17, r^2= 1.3D+00
   Bfn.  Coefficient  Atom+Function         Bfn.  Coefficient  Atom+Function  
  ----- ------------  ---------------      ----- ------------  ---------------
    10      0.471879  1 N  s                 33     -0.471879  2 N  s          
     6      0.390515  1 N  s                 29     -0.390515  2 N  s          
    14     -0.272758  1 N  s                 37      0.272758  2 N  s          

 Vector    5  Occ=2.000000D+00  E=-6.359352D-01  Symmetry=a1g
              MO Center= -1.2D-34, -1.3D-34,  0.0D+00, r^2= 1.3D+00
   Bfn.  Coefficient  Atom+Function         Bfn.  Coefficient  Atom+Function  
  ----- ------------  ---------------      ----- ------------  ---------------
     9      0.309470  1 N  pz                32     -0.309470  2 N  pz         
    10     -0.268744  1 N  s                 33     -0.268744  2 N  s          
     5      0.210622  1 N  pz                28     -0.210622  2 N  pz         
    13      0.179707  1 N  pz                36     -0.179707  2 N  pz         

 Vector    6  Occ=2.000000D+00  E=-6.174448D-01  Symmetry=eu
              MO Center=  3.2D-16,  5.3D-17, -8.3D-17, r^2= 9.1D-01
   Bfn.  Coefficient  Atom+Function         Bfn.  Coefficient  Atom+Function  
  ----- ------------  ---------------      ----- ------------  ---------------
     7      0.310282  1 N  px                30      0.310282  2 N  px         
    11      0.222339  1 N  px                34      0.222339  2 N  px         
     3      0.190153  1 N  px                26      0.190153  2 N  px         

 Vector    7  Occ=2.000000D+00  E=-6.174448D-01  Symmetry=eu
              MO Center=  7.2D-20,  6.6D-19, -1.7D-16, r^2= 9.1D-01
   Bfn.  Coefficient  Atom+Function         Bfn.  Coefficient  Atom+Function  
  ----- ------------  ---------------      ----- ------------  ---------------
     8      0.310282  1 N  py                31      0.310282  2 N  py         
    12      0.222339  1 N  py                35      0.222339  2 N  py         
     4      0.190153  1 N  py                27      0.190153  2 N  py         

 Vector    8  Occ=0.000000D+00  E= 1.289784D-01  Symmetry=eg
              MO Center=  1.7D-18,  3.3D-18,  7.5D-15, r^2= 4.0D+00
   Bfn.  Coefficient  Atom+Function         Bfn.  Coefficient  Atom+Function  
  ----- ------------  ---------------      ----- ------------  ---------------
    16      1.149317  1 N  py                39     -1.149317  2 N  py         
    12      0.290553  1 N  py                35     -0.290553  2 N  py         
     8      0.246469  1 N  py                31     -0.246469  2 N  py         
    15      0.209525  1 N  px                38     -0.209525  2 N  px         

 Vector    9  Occ=0.000000D+00  E= 1.289784D-01  Symmetry=eg
              MO Center=  2.5D-27, -4.6D-28, -2.2D-16, r^2= 4.0D+00
   Bfn.  Coefficient  Atom+Function         Bfn.  Coefficient  Atom+Function  
  ----- ------------  ---------------      ----- ------------  ---------------
    15      1.149317  1 N  px                38     -1.149317  2 N  px         
    11      0.290553  1 N  px                34     -0.290553  2 N  px         
     7      0.246469  1 N  px                30     -0.246469  2 N  px         
    16     -0.209525  1 N  py                39      0.209525  2 N  py         

 Vector   10  Occ=0.000000D+00  E= 1.424132D-01  Symmetry=a2u
              MO Center=  5.5D-18,  4.9D-18, -2.5D-11, r^2= 1.0D+01
   Bfn.  Coefficient  Atom+Function         Bfn.  Coefficient  Atom+Function  
  ----- ------------  ---------------      ----- ------------  ---------------
    14     15.934447  1 N  s                 37    -15.934447  2 N  s          
    17      5.019379  1 N  pz                40      5.019379  2 N  pz         
    10     -0.439783  1 N  s                 33      0.439783  2 N  s          
    13     -0.426384  1 N  pz                36     -0.426384  2 N  pz         

 Vector   11  Occ=0.000000D+00  E= 1.425474D-01  Symmetry=a1g
              MO Center= -2.4D-17, -6.0D-19,  2.5D-11, r^2= 7.3D+00
   Bfn.  Coefficient  Atom+Function         Bfn.  Coefficient  Atom+Function  
  ----- ------------  ---------------      ----- ------------  ---------------
    14      0.926968  1 N  s                 37      0.926968  2 N  s          
    10     -0.648787  1 N  s                 33     -0.648787  2 N  s          
    17     -0.624610  1 N  pz                40      0.624610  2 N  pz         
    13      0.261474  1 N  pz                36     -0.261474  2 N  pz         

 Vector   12  Occ=0.000000D+00  E= 1.642695D-01  Symmetry=eu
              MO Center= -3.3D-18, -3.9D-18,  3.4D-15, r^2= 7.1D+00
   Bfn.  Coefficient  Atom+Function         Bfn.  Coefficient  Atom+Function  
  ----- ------------  ---------------      ----- ------------  ---------------
    15      0.660459  1 N  px                38      0.660459  2 N  px         
    11     -0.299104  1 N  px                34     -0.299104  2 N  px         

 Vector   13  Occ=0.000000D+00  E= 1.642695D-01  Symmetry=eu
              MO Center=  1.2D-27,  1.2D-26, -7.6D-15, r^2= 7.1D+00
   Bfn.  Coefficient  Atom+Function         Bfn.  Coefficient  Atom+Function  
  ----- ------------  ---------------      ----- ------------  ---------------
    16      0.660459  1 N  py                39      0.660459  2 N  py         
    12     -0.299104  1 N  py                35     -0.299104  2 N  py         

 Vector   14  Occ=0.000000D+00  E= 2.181083D-01  Symmetry=a1g
              MO Center= -1.1D-16, -1.7D-18,  1.7D-14, r^2= 7.2D+00
   Bfn.  Coefficient  Atom+Function         Bfn.  Coefficient  Atom+Function  
  ----- ------------  ---------------      ----- ------------  ---------------
    17      1.542751  1 N  pz                40     -1.542751  2 N  pz         
    10     -0.584182  1 N  s                 33     -0.584182  2 N  s          
    14      0.199326  1 N  s                 37      0.199326  2 N  s          

 Vector   15  Occ=0.000000D+00  E= 2.708301D-01  Symmetry=eg
              MO Center=  5.2D-22, -2.3D-22, -4.7D-15, r^2= 6.5D+00
   Bfn.  Coefficient  Atom+Function         Bfn.  Coefficient  Atom+Function  
  ----- ------------  ---------------      ----- ------------  ---------------
    15      1.850811  1 N  px                38     -1.850811  2 N  px         
    16     -0.836426  1 N  py                39      0.836426  2 N  py         
    11     -0.715515  1 N  px                34      0.715515  2 N  px         
    12      0.323358  1 N  py                35     -0.323358  2 N  py         
     7     -0.175851  1 N  px                30      0.175851  2 N  px         

 Vector   16  Occ=0.000000D+00  E= 2.708301D-01  Symmetry=eg
              MO Center=  3.8D-22,  8.5D-22,  8.9D-16, r^2= 6.5D+00
   Bfn.  Coefficient  Atom+Function         Bfn.  Coefficient  Atom+Function  
  ----- ------------  ---------------      ----- ------------  ---------------
    16      1.850811  1 N  py                39     -1.850811  2 N  py         
    15      0.836426  1 N  px                38     -0.836426  2 N  px         
    12     -0.715515  1 N  py                35      0.715515  2 N  py         
    11     -0.323358  1 N  px                34      0.323358  2 N  px         
     8     -0.175851  1 N  py                31      0.175851  2 N  py         

 Vector   17  Occ=0.000000D+00  E= 3.291521D-01  Symmetry=a2u
              MO Center= -1.1D-19, -5.9D-19,  5.5D-14, r^2= 8.5D+00
   Bfn.  Coefficient  Atom+Function         Bfn.  Coefficient  Atom+Function  
  ----- ------------  ---------------      ----- ------------  ---------------
    14     39.755114  1 N  s                 37    -39.755114  2 N  s          
    17     10.436171  1 N  pz                40     10.436171  2 N  pz         
    10     -1.066116  1 N  s                 33      1.066116  2 N  s          
    13      0.264377  1 N  pz                36      0.264377  2 N  pz         

 Vector   18  Occ=0.000000D+00  E= 6.879293D-01  Symmetry=a2u
              MO Center= -2.4D-19, -1.3D-18, -1.3D-15, r^2= 3.6D+00
   Bfn.  Coefficient  Atom+Function         Bfn.  Coefficient  Atom+Function  
  ----- ------------  ---------------      ----- ------------  ---------------
    10      5.447445  1 N  s                 33     -5.447445  2 N  s          
    13      3.526817  1 N  pz                36      3.526817  2 N  pz         
    14     -3.144301  1 N  s                 37      3.144301  2 N  s          
    17     -1.269342  1 N  pz                40     -1.269342  2 N  pz         


 center of mass
 --------------
 x =   0.00000000 y =   0.00000000 z =   0.00000000

 moments of inertia (a.u.)
 ------------------
          30.003463488235           0.000000000000           0.000000000000
           0.000000000000          30.003463488235           0.000000000000
           0.000000000000           0.000000000000           0.000000000000

     Multipole analysis of the density
     ---------------------------------

     L   x y z        total         alpha         beta         nuclear
     -   - - -        -----         -----         ----         -------
     0   0 0 0     -0.000000     -7.000000     -7.000000     14.000000

     1   1 0 0     -0.000000     -0.000000     -0.000000      0.000000
     1   0 1 0     -0.000000     -0.000000     -0.000000      0.000000
     1   0 0 1      0.000000      0.000000      0.000000      0.000000

     2   2 0 0     -7.713148     -3.856574     -3.856574      0.000000
     2   1 1 0      0.000000      0.000000      0.000000      0.000000
     2   1 0 1      0.000000      0.000000      0.000000      0.000000
     2   0 2 0     -7.713148     -3.856574     -3.856574      0.000000
     2   0 1 1     -0.000000     -0.000000     -0.000000      0.000000
     2   0 0 2     -8.865948    -11.932195    -11.932195     14.998443


 Parallel integral file used       3 records with       0 large values


 Task  times  cpu:        0.2s     wall:        0.2s
 Summary of allocated global arrays
-----------------------------------
  No active global arrays



                         GA Statistics for process    0
                         ------------------------------

       create   destroy   get      put      acc     scatter   gather  read&inc
calls: 1234     1234     1.54e+05 3.37e+04 8.17e+04  182        0     1577     
number of processes/call 1.00e+00 1.00e+00 1.00e+00 1.00e+00 0.00e+00
bytes total:             1.70e+08 2.34e+07 1.43e+08 2.73e+06 0.00e+00 1.26e+04
bytes remote:            0.00e+00 0.00e+00 0.00e+00 0.00e+00 0.00e+00 0.00e+00
Max memory consumed for GA by this process: 1008544 bytes
MA_summarize_allocated_blocks: starting scan ...
MA_summarize_allocated_blocks: scan completed: 0 heap blocks, 0 stack blocks
MA usage statistics:

	allocation statistics:
					      heap	     stack
					      ----	     -----
	current number of blocks	         0	         0
	maximum number of blocks	        26	        52
	current total bytes		         0	         0
	maximum total bytes		  13549552	  82962200
	maximum total K-bytes		     13550	     82963
	maximum total M-bytes		        14	        83


                                NWChem Input Module
                                -------------------





                                     CITATION
                                     --------
                Please cite the following reference when publishing
                           results obtained with NWChem:

                 M. Valiev, E.J. Bylaska, N. Govind, K. Kowalski,
              T.P. Straatsma, H.J.J. van Dam, D. Wang, J. Nieplocha,
                        E. Apra, T.L. Windus, W.A. de Jong
                 "NWChem: a comprehensive and scalable open-source
                  solution for large scale molecular simulations"
                      Comput. Phys. Commun. 181, 1477 (2010)
                           doi:10.1016/j.cpc.2010.04.018

                              AUTHORS & CONTRIBUTORS
                              ----------------------
          E. Apra, E. J. Bylaska, W. A. de Jong, N. Govind, K. Kowalski,
       T. P. Straatsma, M. Valiev, H. J. J. van Dam, D. Wang, T. L. Windus,
        J. Hammond, J. Autschbach, K. Bhaskaran-Nair, J. Brabec, K. Lopata,
     F. Aquino, S. Hirata, M. T. Hackler, J. Mullin, P. Nichols, R. Peverati,
    J. Pittner, Y. Zhao, P.-D. Fan, R. J. Harrison, M. Dupuis, D. Silverstein,
    D. M. A. Smith, J. Nieplocha, V. Tipparaju, M. Krishnan, B. E. Van Kuiken,
        A. Vazquez-Mayagoitia, L. Jensen, M. Swart, Q. Wu, T. Van Voorhis,
     A. A. Auer, M. Nooijen, L. D. Crosby, E. Brown, G. Cisneros, G. I. Fann,
     H. Fruchtl, J. Garza, K. Hirao, R. Kendall, J. A. Nichols, K. Tsemekhman,
      K. Wolinski, J. Anchell, D. Bernholdt, P. Borowski, T. Clark, D. Clerc,
      H. Dachsel, M. Deegan, K. Dyall, D. Elwood, E. Glendening, M. Gutowski,
      A. Hess, J. Jaffe, B. Johnson, J. Ju, R. Kobayashi, R. Kutteh, Z. Lin,
   R. Littlefield, X. Long, B. Meng, T. Nakajima, S. Niu, L. Pollack, M. Rosing,
   K. Glaesemann, G. Sandrone, M. Stave, H. Taylor, G. Thomas, J. H. van Lenthe,
                                A. Wong, Z. Zhang.

 Total times  cpu:       15.2s     wall:       15.9s
