
     Program PWSCF v.5.1 starts on 27Apr2015 at 15:18:29 

     This program is part of the open-source Quantum ESPRESSO suite
     for quantum simulation of materials; please cite
         "P. Giannozzi et al., J. Phys.:Condens. Matter 21 395502 (2009);
          URL http://www.quantum-espresso.org", 
     in publications or presentations arising from this work. More details at
     http://www.quantum-espresso.org/quote

     Parallel version (MPI), running on     1 processors
     Waiting for input...
     Reading input from standard input
Warning: card &IONS ignored
Warning: card / ignored
Warning: card &CELL ignored
Warning: card / ignored

     Current dimensions of program PWSCF are:
     Max number of different atomic species (ntypx) = 10
     Max number of k-points (npk) =  40000
     Max angular momentum in pseudopotentials (lmaxx) =  3
               file Si.pbe-n-kjpaw_psl.0.1.UPF: wavefunction(s)  3S renormalized

     Subspace diagonalization in iterative solution of the eigenvalue problem:
     a serial algorithm will be used

 
     G-vector sticks info
     --------------------
     sticks:   dense  smooth     PW     G-vecs:    dense   smooth      PW
     Sum         433     433    151                 5961     5961    1139
 


     bravais-lattice index     =            2
     lattice parameter (alat)  =      10.2600  a.u.
     unit-cell volume          =     270.0114 (a.u.)^3
     number of atoms/cell      =            2
     number of atomic types    =            1
     number of electrons       =         8.00
     number of Kohn-Sham states=            4
     kinetic-energy cutoff     =      30.0000  Ry
     charge density cutoff     =     120.0000  Ry
     convergence threshold     =      1.0E-06
     mixing beta               =       0.7000
     number of iterations used =            8  plain     mixing
     Exchange-correlation      =  SLA  PW   PBX  PBC ( 1  4  3  4 0)

     celldm(1)=  10.260000  celldm(2)=   0.000000  celldm(3)=   0.000000
     celldm(4)=   0.000000  celldm(5)=   0.000000  celldm(6)=   0.000000

     crystal axes: (cart. coord. in units of alat)
               a(1) = (  -0.500000   0.000000   0.500000 )  
               a(2) = (   0.000000   0.500000   0.500000 )  
               a(3) = (  -0.500000   0.500000   0.000000 )  

     reciprocal axes: (cart. coord. in units 2 pi/alat)
               b(1) = ( -1.000000 -1.000000  1.000000 )  
               b(2) = (  1.000000  1.000000  1.000000 )  
               b(3) = ( -1.000000  1.000000 -1.000000 )  


     PseudoPot. # 1 for Si read from file:
     ./Si.pbe-n-kjpaw_psl.0.1.UPF
     MD5 check sum: b9d333a40e496bef61db012f150758bf
     Pseudo is Projector augmented-wave + core cor, Zval =  4.0
     Generated using "atomic" code by A. Dal Corso  v.5.0.2 svn rev. 9415
     Shape of augmentation charge: PSQ
     Using radial grid of 1141 points,  4 beta functions with: 
                l(1) =   0
                l(2) =   0
                l(3) =   1
                l(4) =   1
     Q(r) pseudized with 0 coefficients 


     atomic species   valence    mass     pseudopotential
        Si             4.00    28.05500     Si( 1.00)

     24 Sym. Ops. (no inversion) found
          (note: 24 additional sym.ops. were found but ignored
           their fractional translations are incommensurate with FFT grid)


   Cartesian axes

     site n.     atom                  positions (alat units)
         1           Si  tau(   1) = (   0.0000000   0.0000000   0.0000000  )
         2           Si  tau(   2) = (  -0.2500000   0.2500000   0.2500000  )

     number of k points=    29
                       cart. coord. in units 2pi/alat
        k(    1) = (   0.0000000   0.0000000   0.0000000), wk =   0.0039062
        k(    2) = (  -0.1250000   0.1250000  -0.1250000), wk =   0.0312500
        k(    3) = (  -0.2500000   0.2500000  -0.2500000), wk =   0.0312500
        k(    4) = (  -0.3750000   0.3750000  -0.3750000), wk =   0.0312500
        k(    5) = (   0.5000000  -0.5000000   0.5000000), wk =   0.0156250
        k(    6) = (   0.0000000   0.2500000   0.0000000), wk =   0.0234375
        k(    7) = (  -0.1250000   0.3750000  -0.1250000), wk =   0.0937500
        k(    8) = (  -0.2500000   0.5000000  -0.2500000), wk =   0.0937500
        k(    9) = (   0.6250000  -0.3750000   0.6250000), wk =   0.0937500
        k(   10) = (   0.5000000  -0.2500000   0.5000000), wk =   0.0937500
        k(   11) = (   0.3750000  -0.1250000   0.3750000), wk =   0.0937500
        k(   12) = (   0.2500000   0.0000000   0.2500000), wk =   0.0468750
        k(   13) = (   0.0000000   0.5000000   0.0000000), wk =   0.0234375
        k(   14) = (  -0.1250000   0.6250000  -0.1250000), wk =   0.0937500
        k(   15) = (   0.7500000  -0.2500000   0.7500000), wk =   0.0937500
        k(   16) = (   0.6250000  -0.1250000   0.6250000), wk =   0.0937500
        k(   17) = (   0.5000000   0.0000000   0.5000000), wk =   0.0468750
        k(   18) = (   0.0000000   0.7500000   0.0000000), wk =   0.0234375
        k(   19) = (   0.8750000  -0.1250000   0.8750000), wk =   0.0937500
        k(   20) = (   0.7500000   0.0000000   0.7500000), wk =   0.0468750
        k(   21) = (   0.0000000  -1.0000000   0.0000000), wk =   0.0117188
        k(   22) = (  -0.2500000   0.5000000   0.0000000), wk =   0.0937500
        k(   23) = (   0.6250000  -0.3750000   0.8750000), wk =   0.1875000
        k(   24) = (   0.5000000  -0.2500000   0.7500000), wk =   0.0937500
        k(   25) = (   0.7500000  -0.2500000   1.0000000), wk =   0.0937500
        k(   26) = (   0.6250000  -0.1250000   0.8750000), wk =   0.1875000
        k(   27) = (   0.5000000   0.0000000   0.7500000), wk =   0.0937500
        k(   28) = (  -0.2500000  -1.0000000   0.0000000), wk =   0.0468750
        k(   29) = (  -0.5000000  -1.0000000   0.0000000), wk =   0.0234375

     Dense  grid:     5961 G-vectors     FFT dimensions: (  25,  25,  25)

     Largest allocated arrays     est. size (Mb)     dimensions
        Kohn-Sham Wavefunctions         0.05 Mb     (     763,    4)
        NL pseudopotentials             0.19 Mb     (     763,   16)
        Each V/rho on FFT grid          0.24 Mb     (   15625)
        Each G-vector array             0.05 Mb     (    5961)
        G-vector shells                 0.00 Mb     (     108)
     Largest temporary arrays     est. size (Mb)     dimensions
        Auxiliary wavefunctions         0.19 Mb     (     763,   16)
        Each subspace H/S matrix        0.00 Mb     (      16,   16)
        Each <psi_i|beta_j> matrix      0.00 Mb     (      16,    4)
        Arrays for rho mixing           1.91 Mb     (   15625,    8)

     Check: negative/imaginary core charge=   -0.000004    0.000000

     Initial potential from superposition of free atoms

     starting charge    7.99888, renormalised to    8.00000
     Starting wfc are    8 randomized atomic wfcs
     Checking if some PAW data can be deallocated... 

     total cpu time spent up to now is        1.3 secs

     per-process dynamical memory:     8.0 Mb

     Self-consistent Calculation

     iteration #  1     ecut=    30.00 Ry     beta=0.70
     Davidson diagonalization with overlap
     ethr =  1.00E-02,  avg # of iterations =  2.0

     Threshold (ethr) on eigenvalues was too large:
     Diagonalizing with lowered threshold

     Davidson diagonalization with overlap
     ethr =  7.18E-04,  avg # of iterations =  1.0

     total cpu time spent up to now is        2.5 secs

     total energy              =     -93.45108482 Ry
     Harris-Foulkes estimate   =     -93.46491586 Ry
     estimated scf accuracy    <       0.05715831 Ry

     iteration #  2     ecut=    30.00 Ry     beta=0.70
     Davidson diagonalization with overlap
     ethr =  7.14E-04,  avg # of iterations =  1.0

     total cpu time spent up to now is        3.2 secs

     total energy              =     -93.45321259 Ry
     Harris-Foulkes estimate   =     -93.45334524 Ry
     estimated scf accuracy    <       0.00243450 Ry

     iteration #  3     ecut=    30.00 Ry     beta=0.70
     Davidson diagonalization with overlap
     ethr =  3.04E-05,  avg # of iterations =  1.9

     total cpu time spent up to now is        4.0 secs

     total energy              =     -93.45349818 Ry
     Harris-Foulkes estimate   =     -93.45351611 Ry
     estimated scf accuracy    <       0.00005362 Ry

     iteration #  4     ecut=    30.00 Ry     beta=0.70
     Davidson diagonalization with overlap
     ethr =  6.70E-07,  avg # of iterations =  2.9

     total cpu time spent up to now is        4.9 secs

     total energy              =     -93.45352393 Ry
     Harris-Foulkes estimate   =     -93.45352492 Ry
     estimated scf accuracy    <       0.00000267 Ry

     iteration #  5     ecut=    30.00 Ry     beta=0.70
     Davidson diagonalization with overlap
     ethr =  3.33E-08,  avg # of iterations =  2.7

     total cpu time spent up to now is        5.8 secs

     End of self-consistent calculation

          k = 0.0000 0.0000 0.0000 (   725 PWs)   bands (ev):

    -5.7522   6.2203   6.2203   6.2203

          k =-0.1250 0.1250-0.1250 (   743 PWs)   bands (ev):

    -5.5478   4.6198   5.9308   5.9308

          k =-0.2500 0.2500-0.2500 (   754 PWs)   bands (ev):

    -4.9513   2.2898   5.4595   5.4595

          k =-0.3750 0.3750-0.3750 (   763 PWs)   bands (ev):

    -4.0561   0.2677   5.1319   5.1319

          k = 0.5000-0.5000 0.5000 (   754 PWs)   bands (ev):

    -3.4169  -0.7562   5.0199   5.0199

          k = 0.0000 0.2500 0.0000 (   745 PWs)   bands (ev):

    -5.4789   4.8854   5.4124   5.4124

          k =-0.1250 0.3750-0.1250 (   757 PWs)   bands (ev):

    -5.0095   2.9936   4.9000   4.9763

          k =-0.2500 0.5000-0.2500 (   746 PWs)   bands (ev):

    -4.1933   0.9311   4.3842   4.6316

          k = 0.6250-0.3750 0.6250 (   753 PWs)   bands (ev):

    -3.3303  -0.5343   3.9380   4.6560

          k = 0.5000-0.2500 0.5000 (   750 PWs)   bands (ev):

    -3.5753  -0.1630   3.7560   4.9529

          k = 0.3750-0.1250 0.3750 (   748 PWs)   bands (ev):

    -4.5001   1.5910   3.9069   5.4452

          k = 0.2500 0.0000 0.2500 (   753 PWs)   bands (ev):

    -5.2111   3.5342   4.5897   5.9270

          k = 0.0000 0.5000 0.0000 (   729 PWs)   bands (ev):

    -4.6687   2.7012   4.3280   4.3280

          k =-0.1250 0.6250-0.1250 (   751 PWs)   bands (ev):

    -3.9576   1.2764   3.5465   4.0094

          k = 0.7500-0.2500 0.7500 (   748 PWs)   bands (ev):

    -3.0301  -0.1673   2.6821   4.0125

          k = 0.6250-0.1250 0.6250 (   744 PWs)   bands (ev):

    -2.8254  -0.4261   2.2230   4.3314

          k = 0.5000 0.0000 0.5000 (   754 PWs)   bands (ev):

    -3.7054   0.7361   2.4633   4.8907

          k = 0.0000 0.7500 0.0000 (   753 PWs)   bands (ev):

    -3.3543   0.4715   3.6104   3.6104

          k = 0.8750-0.1250 0.8750 (   747 PWs)   bands (ev):

    -2.4558  -0.6145   2.7803   3.5341

          k = 0.7500 0.0000 0.7500 (   740 PWs)   bands (ev):

    -2.0161  -1.0117   1.9132   3.7921

          k = 0.0000-1.0000 0.0000 (   740 PWs)   bands (ev):

    -1.6023  -1.6022   3.3643   3.3643

          k =-0.2500 0.5000 0.0000 (   755 PWs)   bands (ev):

    -4.4209   1.9279   3.5040   4.7908

          k = 0.6250-0.3750 0.8750 (   747 PWs)   bands (ev):

    -3.5312   0.3744   2.8956   4.2886

          k = 0.5000-0.2500 0.7500 (   750 PWs)   bands (ev):

    -2.8776  -0.5721   2.7668   4.0586

          k = 0.7500-0.2500 1.0000 (   755 PWs)   bands (ev):

    -3.1554   0.2523   2.8541   3.4577

          k = 0.6250-0.1250 0.8750 (   748 PWs)   bands (ev):

    -2.2792  -0.7167   2.1551   3.2567

          k = 0.5000 0.0000 0.7500 (   747 PWs)   bands (ev):

    -2.6303  -0.3532   1.9880   3.6332

          k =-0.2500-1.0000 0.0000 (   742 PWs)   bands (ev):

    -1.5241  -1.5240   2.7995   2.7995

          k =-0.5000-1.0000 0.0000 (   744 PWs)   bands (ev):

    -1.4380  -1.4379   2.3629   2.3630

     highest occupied level (ev):     6.2203

!    total energy              =     -93.45352480 Ry
     Harris-Foulkes estimate   =     -93.45352488 Ry
     estimated scf accuracy    <       0.00000008 Ry

     total all-electron energy =     -1160.145261 Ry

     The total energy is the sum of the following terms:

     one-electron contribution =       5.74101465 Ry
     hartree contribution      =       1.09771634 Ry
     xc contribution           =     -12.25654365 Ry
     ewald contribution        =     -16.80092961 Ry
     one-center paw contrib.   =     -71.23478252 Ry

     convergence has been achieved in   5 iterations

     Forces acting on atoms (Ry/au):

     atom    1 type  1   force =     0.00000000    0.00000000    0.00000000
     atom    2 type  1   force =     0.00000000    0.00000000    0.00000000

     Total force =     0.000000     Total SCF correction =     0.000000


     entering subroutine stress ...

          total   stress  (Ry/bohr**3)                   (kbar)     P=   18.72
   0.00012728  -0.00000000  -0.00000000         18.72     -0.00     -0.00
  -0.00000000   0.00012728   0.00000000         -0.00     18.72      0.00
  -0.00000000   0.00000000   0.00012728         -0.00      0.00     18.72


     Writing output data file pwscf.save
 
     init_run     :      0.92s CPU      0.94s WALL (       1 calls)
     electrons    :      4.39s CPU      4.56s WALL (       1 calls)
     forces       :      0.07s CPU      0.07s WALL (       1 calls)
     stress       :      0.22s CPU      0.23s WALL (       1 calls)

     Called by init_run:
     wfcinit      :      0.32s CPU      0.33s WALL (       1 calls)
     potinit      :      0.19s CPU      0.20s WALL (       1 calls)

     Called by electrons:
     c_bands      :      2.81s CPU      2.92s WALL (       6 calls)
     sum_band     :      0.58s CPU      0.61s WALL (       6 calls)
     v_of_rho     :      0.11s CPU      0.12s WALL (       6 calls)
     newd         :      0.06s CPU      0.06s WALL (       6 calls)
     mix_rho      :      0.01s CPU      0.01s WALL (       6 calls)

     Called by c_bands:
     init_us_2    :      0.13s CPU      0.13s WALL (     435 calls)
     cegterg      :      2.59s CPU      2.69s WALL (     174 calls)

     Called by *egterg:
     h_psi        :      2.60s CPU      2.70s WALL (     536 calls)
     s_psi        :      0.04s CPU      0.05s WALL (     536 calls)
     g_psi        :      0.02s CPU      0.02s WALL (     333 calls)
     cdiaghg      :      0.09s CPU      0.07s WALL (     478 calls)

     Called by h_psi:
     add_vuspsi   :      0.05s CPU      0.05s WALL (     536 calls)

     General routines
     calbec       :      0.11s CPU      0.11s WALL (     768 calls)
     fft          :      0.10s CPU      0.09s WALL (     105 calls)
     fftw         :      2.72s CPU      2.77s WALL (    4832 calls)
     davcio       :      0.00s CPU      0.00s WALL (      29 calls)
 
     Parallel routines
     fft_scatter  :      0.16s CPU      0.13s WALL (    4937 calls)

     PAW routines
     PAW_pot      :      1.01s CPU      1.04s WALL (       6 calls)
     PAW_symme    :      0.00s CPU      0.00s WALL (      12 calls)
 
     PWSCF        :     6.02s CPU         6.33s WALL

 
   This run was terminated on:  15:18:36  27Apr2015            

=------------------------------------------------------------------------------=
   JOB DONE.
=------------------------------------------------------------------------------=
