
     Program PWSCF v.5.1 starts on 27Apr2015 at 15:18:45 

     This program is part of the open-source Quantum ESPRESSO suite
     for quantum simulation of materials; please cite
         "P. Giannozzi et al., J. Phys.:Condens. Matter 21 395502 (2009);
          URL http://www.quantum-espresso.org", 
     in publications or presentations arising from this work. More details at
     http://www.quantum-espresso.org/quote

     Parallel version (MPI), running on     1 processors
     Waiting for input...
     Reading input from standard input
Warning: card &IONS ignored
Warning: card / ignored
Warning: card &CELL ignored
Warning: card / ignored

     Current dimensions of program PWSCF are:
     Max number of different atomic species (ntypx) = 10
     Max number of k-points (npk) =  40000
     Max angular momentum in pseudopotentials (lmaxx) =  3
               file Si.pbe-n-kjpaw_psl.0.1.UPF: wavefunction(s)  3S renormalized

     Subspace diagonalization in iterative solution of the eigenvalue problem:
     a serial algorithm will be used

 
     G-vector sticks info
     --------------------
     sticks:   dense  smooth     PW     G-vecs:    dense   smooth      PW
     Sum         733     733    223                12939    12939    2229
 


     bravais-lattice index     =            2
     lattice parameter (alat)  =      10.2600  a.u.
     unit-cell volume          =     270.0114 (a.u.)^3
     number of atoms/cell      =            2
     number of atomic types    =            1
     number of electrons       =         8.00
     number of Kohn-Sham states=            4
     kinetic-energy cutoff     =      50.0000  Ry
     charge density cutoff     =     200.0000  Ry
     convergence threshold     =      1.0E-06
     mixing beta               =       0.7000
     number of iterations used =            8  plain     mixing
     Exchange-correlation      =  SLA  PW   PBX  PBC ( 1  4  3  4 0)

     celldm(1)=  10.260000  celldm(2)=   0.000000  celldm(3)=   0.000000
     celldm(4)=   0.000000  celldm(5)=   0.000000  celldm(6)=   0.000000

     crystal axes: (cart. coord. in units of alat)
               a(1) = (  -0.500000   0.000000   0.500000 )  
               a(2) = (   0.000000   0.500000   0.500000 )  
               a(3) = (  -0.500000   0.500000   0.000000 )  

     reciprocal axes: (cart. coord. in units 2 pi/alat)
               b(1) = ( -1.000000 -1.000000  1.000000 )  
               b(2) = (  1.000000  1.000000  1.000000 )  
               b(3) = ( -1.000000  1.000000 -1.000000 )  


     PseudoPot. # 1 for Si read from file:
     ./Si.pbe-n-kjpaw_psl.0.1.UPF
     MD5 check sum: b9d333a40e496bef61db012f150758bf
     Pseudo is Projector augmented-wave + core cor, Zval =  4.0
     Generated using "atomic" code by A. Dal Corso  v.5.0.2 svn rev. 9415
     Shape of augmentation charge: PSQ
     Using radial grid of 1141 points,  4 beta functions with: 
                l(1) =   0
                l(2) =   0
                l(3) =   1
                l(4) =   1
     Q(r) pseudized with 0 coefficients 


     atomic species   valence    mass     pseudopotential
        Si             4.00    28.05500     Si( 1.00)

     48 Sym. Ops., with inversion, found (24 have fractional translation)



   Cartesian axes

     site n.     atom                  positions (alat units)
         1           Si  tau(   1) = (   0.0000000   0.0000000   0.0000000  )
         2           Si  tau(   2) = (  -0.2500000   0.2500000   0.2500000  )

     number of k points=    29
                       cart. coord. in units 2pi/alat
        k(    1) = (   0.0000000   0.0000000   0.0000000), wk =   0.0039062
        k(    2) = (  -0.1250000   0.1250000  -0.1250000), wk =   0.0312500
        k(    3) = (  -0.2500000   0.2500000  -0.2500000), wk =   0.0312500
        k(    4) = (  -0.3750000   0.3750000  -0.3750000), wk =   0.0312500
        k(    5) = (   0.5000000  -0.5000000   0.5000000), wk =   0.0156250
        k(    6) = (   0.0000000   0.2500000   0.0000000), wk =   0.0234375
        k(    7) = (  -0.1250000   0.3750000  -0.1250000), wk =   0.0937500
        k(    8) = (  -0.2500000   0.5000000  -0.2500000), wk =   0.0937500
        k(    9) = (   0.6250000  -0.3750000   0.6250000), wk =   0.0937500
        k(   10) = (   0.5000000  -0.2500000   0.5000000), wk =   0.0937500
        k(   11) = (   0.3750000  -0.1250000   0.3750000), wk =   0.0937500
        k(   12) = (   0.2500000   0.0000000   0.2500000), wk =   0.0468750
        k(   13) = (   0.0000000   0.5000000   0.0000000), wk =   0.0234375
        k(   14) = (  -0.1250000   0.6250000  -0.1250000), wk =   0.0937500
        k(   15) = (   0.7500000  -0.2500000   0.7500000), wk =   0.0937500
        k(   16) = (   0.6250000  -0.1250000   0.6250000), wk =   0.0937500
        k(   17) = (   0.5000000   0.0000000   0.5000000), wk =   0.0468750
        k(   18) = (   0.0000000   0.7500000   0.0000000), wk =   0.0234375
        k(   19) = (   0.8750000  -0.1250000   0.8750000), wk =   0.0937500
        k(   20) = (   0.7500000   0.0000000   0.7500000), wk =   0.0468750
        k(   21) = (   0.0000000  -1.0000000   0.0000000), wk =   0.0117188
        k(   22) = (  -0.2500000   0.5000000   0.0000000), wk =   0.0937500
        k(   23) = (   0.6250000  -0.3750000   0.8750000), wk =   0.1875000
        k(   24) = (   0.5000000  -0.2500000   0.7500000), wk =   0.0937500
        k(   25) = (   0.7500000  -0.2500000   1.0000000), wk =   0.0937500
        k(   26) = (   0.6250000  -0.1250000   0.8750000), wk =   0.1875000
        k(   27) = (   0.5000000   0.0000000   0.7500000), wk =   0.0937500
        k(   28) = (  -0.2500000  -1.0000000   0.0000000), wk =   0.0468750
        k(   29) = (  -0.5000000  -1.0000000   0.0000000), wk =   0.0234375

     Dense  grid:    12939 G-vectors     FFT dimensions: (  36,  36,  36)

     Largest allocated arrays     est. size (Mb)     dimensions
        Kohn-Sham Wavefunctions         0.10 Mb     (    1639,    4)
        NL pseudopotentials             0.40 Mb     (    1639,   16)
        Each V/rho on FFT grid          0.71 Mb     (   46656)
        Each G-vector array             0.10 Mb     (   12939)
        G-vector shells                 0.00 Mb     (     180)
     Largest temporary arrays     est. size (Mb)     dimensions
        Auxiliary wavefunctions         0.40 Mb     (    1639,   16)
        Each subspace H/S matrix        0.00 Mb     (      16,   16)
        Each <psi_i|beta_j> matrix      0.00 Mb     (      16,    4)
        Arrays for rho mixing           5.70 Mb     (   46656,    8)

     Initial potential from superposition of free atoms

     starting charge    7.99888, renormalised to    8.00000
     Starting wfc are    8 randomized atomic wfcs
     Checking if some PAW data can be deallocated... 

     total cpu time spent up to now is        1.9 secs

     per-process dynamical memory:    13.9 Mb

     Self-consistent Calculation

     iteration #  1     ecut=    50.00 Ry     beta=0.70
     Davidson diagonalization with overlap
     ethr =  1.00E-02,  avg # of iterations =  2.0

     Threshold (ethr) on eigenvalues was too large:
     Diagonalizing with lowered threshold

     Davidson diagonalization with overlap
     ethr =  7.20E-04,  avg # of iterations =  1.0

     total cpu time spent up to now is        4.8 secs

     total energy              =     -93.45125700 Ry
     Harris-Foulkes estimate   =     -93.46507244 Ry
     estimated scf accuracy    <       0.05705348 Ry

     iteration #  2     ecut=    50.00 Ry     beta=0.70
     Davidson diagonalization with overlap
     ethr =  7.13E-04,  avg # of iterations =  1.0

     total cpu time spent up to now is        6.1 secs

     total energy              =     -93.45337237 Ry
     Harris-Foulkes estimate   =     -93.45350693 Ry
     estimated scf accuracy    <       0.00245065 Ry

     iteration #  3     ecut=    50.00 Ry     beta=0.70
     Davidson diagonalization with overlap
     ethr =  3.06E-05,  avg # of iterations =  2.0

     total cpu time spent up to now is        7.6 secs

     total energy              =     -93.45366100 Ry
     Harris-Foulkes estimate   =     -93.45367981 Ry
     estimated scf accuracy    <       0.00005426 Ry

     iteration #  4     ecut=    50.00 Ry     beta=0.70
     Davidson diagonalization with overlap
     ethr =  6.78E-07,  avg # of iterations =  3.0

     total cpu time spent up to now is        9.6 secs

     total energy              =     -93.45368757 Ry
     Harris-Foulkes estimate   =     -93.45368870 Ry
     estimated scf accuracy    <       0.00000297 Ry

     iteration #  5     ecut=    50.00 Ry     beta=0.70
     Davidson diagonalization with overlap
     ethr =  3.71E-08,  avg # of iterations =  2.7

     total cpu time spent up to now is       11.4 secs

     End of self-consistent calculation

          k = 0.0000 0.0000 0.0000 (  1639 PWs)   bands (ev):

    -5.7527   6.2193   6.2193   6.2193

          k =-0.1250 0.1250-0.1250 (  1606 PWs)   bands (ev):

    -5.5482   4.6192   5.9300   5.9300

          k =-0.2500 0.2500-0.2500 (  1618 PWs)   bands (ev):

    -4.9517   2.2892   5.4587   5.4587

          k =-0.3750 0.3750-0.3750 (  1610 PWs)   bands (ev):

    -4.0565   0.2673   5.1313   5.1313

          k = 0.5000-0.5000 0.5000 (  1622 PWs)   bands (ev):

    -3.4174  -0.7566   5.0193   5.0193

          k = 0.0000 0.2500 0.0000 (  1603 PWs)   bands (ev):

    -5.4793   4.8845   5.4117   5.4117

          k =-0.1250 0.3750-0.1250 (  1605 PWs)   bands (ev):

    -5.0099   2.9930   4.8993   4.9756

          k =-0.2500 0.5000-0.2500 (  1598 PWs)   bands (ev):

    -4.1937   0.9306   4.3835   4.6309

          k = 0.6250-0.3750 0.6250 (  1609 PWs)   bands (ev):

    -3.3307  -0.5346   3.9374   4.6554

          k = 0.5000-0.2500 0.5000 (  1614 PWs)   bands (ev):

    -3.5758  -0.1634   3.7554   4.9523

          k = 0.3750-0.1250 0.3750 (  1614 PWs)   bands (ev):

    -4.5005   1.5905   3.9063   5.4445

          k = 0.2500 0.0000 0.2500 (  1608 PWs)   bands (ev):

    -5.2115   3.5336   4.5891   5.9262

          k = 0.0000 0.5000 0.0000 (  1612 PWs)   bands (ev):

    -4.6691   2.7006   4.3274   4.3274

          k =-0.1250 0.6250-0.1250 (  1616 PWs)   bands (ev):

    -3.9580   1.2758   3.5460   4.0088

          k = 0.7500-0.2500 0.7500 (  1617 PWs)   bands (ev):

    -3.0305  -0.1677   2.6817   4.0119

          k = 0.6250-0.1250 0.6250 (  1611 PWs)   bands (ev):

    -2.8258  -0.4266   2.2226   4.3308

          k = 0.5000 0.0000 0.5000 (  1604 PWs)   bands (ev):

    -3.7058   0.7356   2.4628   4.8901

          k = 0.0000 0.7500 0.0000 (  1624 PWs)   bands (ev):

    -3.3547   0.4710   3.6099   3.6099

          k = 0.8750-0.1250 0.8750 (  1625 PWs)   bands (ev):

    -2.4562  -0.6150   2.7799   3.5336

          k = 0.7500 0.0000 0.7500 (  1624 PWs)   bands (ev):

    -2.0166  -1.0122   1.9128   3.7915

          k = 0.0000-1.0000 0.0000 (  1604 PWs)   bands (ev):

    -1.6027  -1.6027   3.3639   3.3639

          k =-0.2500 0.5000 0.0000 (  1610 PWs)   bands (ev):

    -4.4212   1.9273   3.5035   4.7902

          k = 0.6250-0.3750 0.8750 (  1618 PWs)   bands (ev):

    -3.5316   0.3739   2.8951   4.2881

          k = 0.5000-0.2500 0.7500 (  1614 PWs)   bands (ev):

    -2.8780  -0.5725   2.7663   4.0580

          k = 0.7500-0.2500 1.0000 (  1613 PWs)   bands (ev):

    -3.1558   0.2518   2.8536   3.4572

          k = 0.6250-0.1250 0.8750 (  1613 PWs)   bands (ev):

    -2.2797  -0.7172   2.1546   3.2562

          k = 0.5000 0.0000 0.7500 (  1616 PWs)   bands (ev):

    -2.6307  -0.3536   1.9875   3.6327

          k =-0.2500-1.0000 0.0000 (  1626 PWs)   bands (ev):

    -1.5245  -1.5245   2.7990   2.7990

          k =-0.5000-1.0000 0.0000 (  1628 PWs)   bands (ev):

    -1.4384  -1.4384   2.3625   2.3625

     highest occupied level (ev):     6.2193

!    total energy              =     -93.45368845 Ry
     Harris-Foulkes estimate   =     -93.45368852 Ry
     estimated scf accuracy    <       0.00000008 Ry

     total all-electron energy =     -1160.145424 Ry

     The total energy is the sum of the following terms:

     one-electron contribution =       5.74074831 Ry
     hartree contribution      =       1.09779806 Ry
     xc contribution           =     -12.25670559 Ry
     ewald contribution        =     -16.80092961 Ry
     one-center paw contrib.   =     -71.23459963 Ry

     convergence has been achieved in   5 iterations

     Forces acting on atoms (Ry/au):

     atom    1 type  1   force =     0.00000000    0.00000000    0.00000000
     atom    2 type  1   force =     0.00000000    0.00000000    0.00000000

     Total force =     0.000000     Total SCF correction =     0.000000


     entering subroutine stress ...

          total   stress  (Ry/bohr**3)                   (kbar)     P=   18.93
   0.00012871  -0.00000000  -0.00000000         18.93     -0.00     -0.00
  -0.00000000   0.00012871   0.00000000         -0.00     18.93      0.00
  -0.00000000   0.00000000   0.00012871         -0.00      0.00     18.93


     Writing output data file pwscf.save
 
     init_run     :      1.56s CPU      1.61s WALL (       1 calls)
     electrons    :      9.26s CPU      9.48s WALL (       1 calls)
     forces       :      0.16s CPU      0.16s WALL (       1 calls)
     stress       :      0.52s CPU      0.53s WALL (       1 calls)

     Called by init_run:
     wfcinit      :      0.78s CPU      0.79s WALL (       1 calls)
     potinit      :      0.23s CPU      0.24s WALL (       1 calls)

     Called by electrons:
     c_bands      :      6.57s CPU      6.73s WALL (       6 calls)
     sum_band     :      1.46s CPU      1.49s WALL (       6 calls)
     v_of_rho     :      0.31s CPU      0.33s WALL (       6 calls)
     newd         :      0.13s CPU      0.13s WALL (       6 calls)
     mix_rho      :      0.02s CPU      0.03s WALL (       6 calls)

     Called by c_bands:
     init_us_2    :      0.27s CPU      0.28s WALL (     435 calls)
     cegterg      :      6.13s CPU      6.27s WALL (     174 calls)

     Called by *egterg:
     h_psi        :      6.33s CPU      6.45s WALL (     544 calls)
     s_psi        :      0.09s CPU      0.11s WALL (     544 calls)
     g_psi        :      0.04s CPU      0.05s WALL (     341 calls)
     cdiaghg      :      0.08s CPU      0.07s WALL (     486 calls)

     Called by h_psi:
     add_vuspsi   :      0.11s CPU      0.12s WALL (     544 calls)

     General routines
     calbec       :      0.21s CPU      0.21s WALL (     776 calls)
     fft          :      0.21s CPU      0.22s WALL (     105 calls)
     fftw         :      6.36s CPU      6.49s WALL (    4818 calls)
     davcio       :      0.00s CPU      0.00s WALL (      29 calls)
 
     Parallel routines
     fft_scatter  :      0.48s CPU      0.47s WALL (    4923 calls)

     PAW routines
     PAW_pot      :      0.99s CPU      1.01s WALL (       6 calls)
     PAW_symme    :      0.00s CPU      0.00s WALL (      12 calls)
 
     PWSCF        :    11.93s CPU        12.31s WALL

 
   This run was terminated on:  15:18:57  27Apr2015            

=------------------------------------------------------------------------------=
   JOB DONE.
=------------------------------------------------------------------------------=
