 argument  1 = NH3.nw
                                         
                                         


              Northwest Computational Chemistry Package (NWChem) 6.3
              ------------------------------------------------------


                    Environmental Molecular Sciences Laboratory
                       Pacific Northwest National Laboratory
                                Richland, WA 99352

                              Copyright (c) 1994-2012
                       Pacific Northwest National Laboratory
                            Battelle Memorial Institute

             NWChem is an open-source computational chemistry package
                        distributed under the terms of the
                      Educational Community License (ECL) 2.0
             A copy of the license is included with this distribution
                              in the LICENSE.TXT file

                                  ACKNOWLEDGMENT
                                  --------------

            This software and its documentation were developed at the
            EMSL at Pacific Northwest National Laboratory, a multiprogram
            national laboratory, operated for the U.S. Department of Energy
            by Battelle under Contract Number DE-AC05-76RL01830. Support
            for this work was provided by the Department of Energy Office
            of Biological and Environmental Research, Office of Basic
            Energy Sciences, and the Office of Advanced Scientific Computing.


           Job information
           ---------------

    hostname        = ChensPro.local
    program         = nwchem
    date            = Wed Apr 15 10:33:38 2015

    compiled        = Sat_Jul_20_13:52:43_2013
    source          = /Users/shyuepingong/Software/nwchem-6.3
    nwchem branch   = 6.3
    nwchem revision = 24277
    ga revision     = 10379
    input           = NH3.nw
    prefix          = NH3.
    data base       = ./NH3.db
    status          = startup
    nproc           =        1
    time left       =     -1s



           Memory information
           ------------------

    heap     =   32768001 doubles =    250.0 Mbytes
    stack    =   32768001 doubles =    250.0 Mbytes
    global   =   65536000 doubles =    500.0 Mbytes (distinct from heap & stack)
    total    =  131072002 doubles =   1000.0 Mbytes
    verify   = yes
    hardfail = no 


           Directory information
           ---------------------

  0 permanent = .
  0 scratch   = .




                                NWChem Input Module
                                -------------------



 Scaling coordinates for geometry "geometry" by  1.889725989
 (inverse scale =  0.529177249)

 C3V symmetry detected


                             Geometry "geometry" -> ""
                             -------------------------

 Output coordinates in angstroms (scale by  1.889725989 to convert to a.u.)

  No.       Tag          Charge          X              Y              Z
 ---- ---------------- ---------- -------------- -------------- --------------
    1 N                    7.0000     0.00000000     0.00000000     0.10898739
    2 H                    1.0000     0.72683573     0.72683573    -0.25430392
    3 H                    1.0000     0.26604034    -0.99287607    -0.25430392
    4 H                    1.0000    -0.99287607     0.26604034    -0.25430392

      Atomic Mass 
      ----------- 

      N                 14.003070
      H                  1.007825


 Effective nuclear repulsion energy (a.u.)      11.0848640562

            Nuclear Dipole moment (a.u.) 
            ----------------------------
        X                 Y               Z
 ---------------- ---------------- ----------------
     0.0000000000    -0.0000000000     0.0000000000

      Symmetry information
      --------------------

 Group name             C3v       
 Group number             17
 Group order               6
 No. of unique centers     2

      Symmetry unique atoms

     1    2


            XYZ format geometry
            -------------------
     4
 geometry
 N                     0.00000000     0.00000000     0.10898739
 H                     0.72683573     0.72683573    -0.25430392
 H                     0.26604034    -0.99287607    -0.25430392
 H                    -0.99287607     0.26604034    -0.25430392

 ==============================================================================
                                internuclear distances
 ------------------------------------------------------------------------------
       center one      |      center two      | atomic units |  angstroms
 ------------------------------------------------------------------------------
    2 H                |   1 N                |     2.06020  |     1.09021
    3 H                |   1 N                |     2.06020  |     1.09021
    4 H                |   1 N                |     2.06020  |     1.09021
 ------------------------------------------------------------------------------
                         number of included internuclear distances:          3
 ==============================================================================



 ==============================================================================
                                 internuclear angles
 ------------------------------------------------------------------------------
        center 1       |       center 2       |       center 3       |  degrees
 ------------------------------------------------------------------------------
    2 H                |   1 N                |   3 H                |   109.48
    2 H                |   1 N                |   4 H                |   109.48
    3 H                |   1 N                |   4 H                |   109.48
 ------------------------------------------------------------------------------
                            number of included internuclear angles:          3
 ==============================================================================



                                 H3N1 dft optimize
                                 -----------------
  library name resolved from: environment
  library file name is: </Users/chenzheng/Google Drive/nano266/resources/nwchem_basis/>
  
                      Basis "ao basis" -> "" (cartesian)
                      -----
  H (Hydrogen)
  ------------
            Exponent  Coefficients 
       -------------- ---------------------------------------------------------
  1 S  1.87311370E+01  0.033495
  1 S  2.82539370E+00  0.234727
  1 S  6.40121700E-01  0.813757

  2 S  1.61277800E-01  1.000000

  N (Nitrogen)
  ------------
            Exponent  Coefficients 
       -------------- ---------------------------------------------------------
  1 S  4.17351100E+03  0.001835
  1 S  6.27457900E+02  0.013995
  1 S  1.42902100E+02  0.068587
  1 S  4.02343300E+01  0.232241
  1 S  1.28202100E+01  0.469070
  1 S  4.39043700E+00  0.360455

  2 S  1.16263580E+01 -0.114961
  2 S  2.71628000E+00 -0.169118
  2 S  7.72218000E-01  1.145852

  3 P  1.16263580E+01  0.067580
  3 P  2.71628000E+00  0.323907
  3 P  7.72218000E-01  0.740895

  4 S  2.12031300E-01  1.000000

  5 P  2.12031300E-01  1.000000

  6 S  6.39000000E-02  1.000000

  7 P  6.39000000E-02  1.000000

  8 D  8.00000000E-01  1.000000



 Summary of "ao basis" -> "" (cartesian)
 ------------------------------------------------------------------------------
       Tag                 Description            Shells   Functions and Types
 ---------------- ------------------------------  ------  ---------------------
 H                          6-31+G*                  2        2   2s
 N                          6-31+G*                  8       19   4s3p1d




                           NWChem Geometry Optimization
                           ----------------------------




                                 H3N1 dft optimize


 maximum gradient threshold         (gmax) =   0.000450
 rms gradient threshold             (grms) =   0.000300
 maximum cartesian step threshold   (xmax) =   0.001800
 rms cartesian step threshold       (xrms) =   0.001200
 fixed trust radius                (trust) =   0.300000
 maximum step size to saddle      (sadstp) =   0.100000
 energy precision                  (eprec) =   5.0D-06
 maximum number of steps          (nptopt) =   20
 initial hessian option           (inhess) =    0
 line search option               (linopt) =    1
 hessian update option            (modupd) =    1
 saddle point option              (modsad) =    0
 initial eigen-mode to follow     (moddir) =    0
 initial variable to follow       (vardir) =    0
 follow first negative mode     (firstneg) =    T
 apply conjugacy                    (opcg) =    F
 source of zmatrix                         =           


          -------------------
          Energy Minimization
          -------------------


 Using diagonal initial Hessian 

          --------
          Step   0
          --------


                         Geometry "geometry" -> "geometry"
                         ---------------------------------

 Output coordinates in angstroms (scale by  1.889725989 to convert to a.u.)

  No.       Tag          Charge          X              Y              Z
 ---- ---------------- ---------- -------------- -------------- --------------
    1 N                    7.0000     0.00000000     0.00000000     0.10898739
    2 H                    1.0000     0.72683573     0.72683573    -0.25430392
    3 H                    1.0000     0.26604034    -0.99287607    -0.25430392
    4 H                    1.0000    -0.99287607     0.26604034    -0.25430392

      Atomic Mass 
      ----------- 

      N                 14.003070
      H                  1.007825


 Effective nuclear repulsion energy (a.u.)      11.0848640562

            Nuclear Dipole moment (a.u.) 
            ----------------------------
        X                 Y               Z
 ---------------- ---------------- ----------------
     0.0000000000    -0.0000000000     0.0000000000

      Symmetry information
      --------------------

 Group name             C3v       
 Group number             17
 Group order               6
 No. of unique centers     2

      Symmetry unique atoms

     1    2


                                 NWChem DFT Module
                                 -----------------


                                 H3N1 dft optimize


  Caching 1-el integrals 
  Rotation of axis 

            General Information
            -------------------
          SCF calculation type: DFT
          Wavefunction type:  closed shell.
          No. of atoms     :     4
          No. of electrons :    10
           Alpha electrons :     5
            Beta electrons :     5
          Charge           :     0
          Spin multiplicity:     1
          Use of symmetry is: on ; symmetry adaption is: on 
          Maximum number of iterations:  30
          AO basis - number of functions:    25
                     number of shells:    14
          Convergence on energy requested: 1.00D-06
          Convergence on density requested: 1.00D-05
          Convergence on gradient requested: 5.00D-04

              XC Information
              --------------
          PerdewBurkeErnzerhof Exchange Functional  1.000          

             Grid Information
             ----------------
          Grid used for XC integration:  medium    
          Radial quadrature: Mura-Knowles        
          Angular quadrature: Lebedev. 
          Tag              B.-S. Rad. Rad. Pts. Rad. Cut. Ang. Pts.
          ---              ---------- --------- --------- ---------
          N                   0.65       49           6.0       434
          H                   0.35       45           7.0       434
          Grid pruning is: on 
          Number of quadrature shells:    94
          Spatial weights used:  Erf1

          Convergence Information
          -----------------------
          Convergence aids based upon iterative change in 
          total energy or number of iterations. 
          Levelshifting, if invoked, occurs when the 
          HOMO/LUMO gap drops below (HL_TOL): 1.00D-02
          DIIS, if invoked, will attempt to extrapolate 
          using up to (NFOCK): 10 stored Fock matrices.

                    Damping( 0%)  Levelshifting(0.5)       DIIS
                  --------------- ------------------- ---------------
          dE  on:    start            ASAP                start   
          dE off:    2 iters         30 iters            30 iters 


      Screening Tolerance Information
      -------------------------------
          Density screening/tol_rho: 1.00D-10
          AO Gaussian exp screening on grid/accAOfunc:  14
          CD Gaussian exp screening on grid/accCDfunc:  20
          XC Gaussian exp screening on grid/accXCfunc:  20
          Schwarz screening/accCoul: 1.00D-08


      Superposition of Atomic Density Guess
      -------------------------------------

 Sum of atomic energies:         -55.79033969

      Non-variational initial energy
      ------------------------------

 Total energy =     -56.003803
 1-e energy   =     -96.710835
 2-e energy   =      29.622168
 HOMO         =      -0.347707
 LUMO         =       0.056047


      Symmetry analysis of molecular orbitals - initial
      -------------------------------------------------

  Numbering of irreducible representations: 

     1 a1          2 a2          3 e       

  Orbital symmetries:

     1 a1          2 a1          3 e           4 e           5 a1      
     6 a1          7 e           8 e           9 a1         10 e       
    11 e          12 a1         13 e          14 e          15 a1      

   Time after variat. SCF:      0.1
   Time prior to 1st pass:      0.1

 #quartets = 2.175D+03 #integrals = 1.621D+04 #direct =  0.0% #cached =100.0%


 Integral file          = ./NH3.aoints.0
 Record size in doubles =  65536        No. of integs per rec  =  43688
 Max. records in memory =      2        Max. records in file   = 185718
 No. of bits per label  =      8        No. of bits per value  =     64


 Grid_pts file          = ./NH3.gridpts.0
 Record size in doubles =  12289        No. of grid_pts per rec  =   3070
 Max. records in memory =     16        Max. recs in file   =    990422


           Memory utilization after 1st SCF pass: 
           Heap Space remaining (MW):       32.44            32438492
          Stack Space remaining (MW):       32.77            32767739

   convergence    iter        energy       DeltaE   RMS-Dens  Diis-err    time
 ---------------- ----- ----------------- --------- --------- ---------  ------
 d= 0,ls=0.0,diis     1    -56.1307907618 -6.72D+01  3.12D-02  2.76D-01     0.2
 d= 0,ls=0.0,diis     2    -56.0936435208  3.71D-02  2.12D-02  5.71D-01     0.3
 d= 0,ls=0.0,diis     3    -56.1557394778 -6.21D-02  4.50D-03  5.47D-02     0.3
 d= 0,ls=0.0,diis     4    -56.1618545681 -6.12D-03  9.11D-04  3.79D-04     0.4
 d= 0,ls=0.0,diis     5    -56.1619007412 -4.62D-05  7.07D-05  2.42D-06     0.5
 d= 0,ls=0.0,diis     6    -56.1619011048 -3.64D-07  8.42D-06  5.39D-08     0.5


         Total DFT energy =      -56.161901104765
      One electron energy =      -97.810121794041
           Coulomb energy =       38.072045274417
    Exchange-Corr. energy =       -7.508688641366
 Nuclear repulsion energy =       11.084864056225

 Numeric. integr. density =        9.999999968315

     Total iterative time =      0.4s



                  Occupations of the irreducible representations
                  ----------------------------------------------

                     irrep           alpha         beta
                     --------     --------     --------
                     a1                3.0          3.0
                     a2                0.0          0.0
                     e                 2.0          2.0


                       DFT Final Molecular Orbital Analysis
                       ------------------------------------

 Vector    1  Occ=2.000000D+00  E=-1.399883D+01  Symmetry=a1
              MO Center=  1.1D-20,  8.2D-21,  1.1D-01, r^2= 2.0D-02
   Bfn.  Coefficient  Atom+Function         Bfn.  Coefficient  Atom+Function  
  ----- ------------  ---------------      ----- ------------  ---------------
     1      0.992336  1 N  s          

 Vector    2  Occ=2.000000D+00  E=-7.178534D-01  Symmetry=a1
              MO Center=  6.5D-18,  5.7D-18, -7.4D-02, r^2= 7.3D-01
   Bfn.  Coefficient  Atom+Function         Bfn.  Coefficient  Atom+Function  
  ----- ------------  ---------------      ----- ------------  ---------------
     6      0.462699  1 N  s                  2      0.425915  1 N  s          
     1     -0.201511  1 N  s          

 Vector    3  Occ=2.000000D+00  E=-3.727702D-01  Symmetry=e
              MO Center=  1.6D-01,  1.5D-01, -5.4D-02, r^2= 1.1D+00
   Bfn.  Coefficient  Atom+Function         Bfn.  Coefficient  Atom+Function  
  ----- ------------  ---------------      ----- ------------  ---------------
     4      0.341309  1 N  py                 3      0.332501  1 N  px         
    20      0.282632  2 H  s                 21      0.178560  2 H  s          
     8      0.170899  1 N  py                 7      0.166488  1 N  px         

 Vector    4  Occ=2.000000D+00  E=-3.727702D-01  Symmetry=e
              MO Center= -1.6D-01, -1.5D-01, -5.4D-02, r^2= 1.1D+00
   Bfn.  Coefficient  Atom+Function         Bfn.  Coefficient  Atom+Function  
  ----- ------------  ---------------      ----- ------------  ---------------
     3      0.341309  1 N  px                 4     -0.332501  1 N  py         
    24     -0.246614  4 H  s                 22      0.242919  3 H  s          
     7      0.170899  1 N  px                 8     -0.166488  1 N  py         
    25     -0.155805  4 H  s                 23      0.153471  3 H  s          

 Vector    5  Occ=2.000000D+00  E=-1.846777D-01  Symmetry=a1
              MO Center=  3.4D-17, -1.1D-17,  2.4D-01, r^2= 1.1D+00
   Bfn.  Coefficient  Atom+Function         Bfn.  Coefficient  Atom+Function  
  ----- ------------  ---------------      ----- ------------  ---------------
     5      0.554968  1 N  pz                 9      0.391221  1 N  pz         
     6      0.246162  1 N  s                 13      0.189585  1 N  pz         
     2      0.154563  1 N  s          

 Vector    6  Occ=0.000000D+00  E= 4.534583D-03  Symmetry=a1
              MO Center=  2.5D-16,  6.9D-18, -4.8D-01, r^2= 4.3D+00
   Bfn.  Coefficient  Atom+Function         Bfn.  Coefficient  Atom+Function  
  ----- ------------  ---------------      ----- ------------  ---------------
    10      1.344071  1 N  s                  6     -1.009662  1 N  s          
    13     -0.297003  1 N  pz                 5      0.193040  1 N  pz         
     9      0.185591  1 N  pz                 2     -0.174017  1 N  s          

 Vector    7  Occ=0.000000D+00  E= 7.880614D-02  Symmetry=e
              MO Center= -2.8D-03,  1.5D-02,  9.7D-02, r^2= 6.1D+00
   Bfn.  Coefficient  Atom+Function         Bfn.  Coefficient  Atom+Function  
  ----- ------------  ---------------      ----- ------------  ---------------
    11      1.111250  1 N  px                 7     -0.451538  1 N  px         
    12      0.342949  1 N  py                 3     -0.290112  1 N  px         

 Vector    8  Occ=0.000000D+00  E= 7.880614D-02  Symmetry=e
              MO Center=  2.8D-03, -1.5D-02,  9.7D-02, r^2= 6.1D+00
   Bfn.  Coefficient  Atom+Function         Bfn.  Coefficient  Atom+Function  
  ----- ------------  ---------------      ----- ------------  ---------------
    12      1.111250  1 N  py                 8     -0.451538  1 N  py         
    11     -0.342949  1 N  px                 4     -0.290112  1 N  py         

 Vector    9  Occ=0.000000D+00  E= 1.102093D-01  Symmetry=a1
              MO Center= -1.8D-16,  4.6D-16,  4.7D-01, r^2= 6.1D+00
   Bfn.  Coefficient  Atom+Function         Bfn.  Coefficient  Atom+Function  
  ----- ------------  ---------------      ----- ------------  ---------------
    13      1.224538  1 N  pz                 6     -0.610950  1 N  s          
     9     -0.360899  1 N  pz                21      0.300304  2 H  s          
    23      0.300304  3 H  s                 25      0.300304  4 H  s          
     5     -0.242751  1 N  pz         

 Vector   10  Occ=0.000000D+00  E= 1.607455D-01  Symmetry=e
              MO Center= -7.9D-02, -8.5D-02,  2.3D-02, r^2= 3.5D+00
   Bfn.  Coefficient  Atom+Function         Bfn.  Coefficient  Atom+Function  
  ----- ------------  ---------------      ----- ------------  ---------------
    23      1.549733  3 H  s                 25     -1.518592  4 H  s          
    12      0.674934  1 N  py                11     -0.651614  1 N  px         
     8      0.610768  1 N  py                 7     -0.589666  1 N  px         
     4      0.240837  1 N  py                 3     -0.232516  1 N  px         
    22      0.182828  3 H  s                 24     -0.179154  4 H  s          

 Vector   11  Occ=0.000000D+00  E= 1.607455D-01  Symmetry=e
              MO Center=  7.9D-02,  8.5D-02,  2.3D-02, r^2= 3.5D+00
   Bfn.  Coefficient  Atom+Function         Bfn.  Coefficient  Atom+Function  
  ----- ------------  ---------------      ----- ------------  ---------------
    21      1.771498  2 H  s                 25     -0.912718  4 H  s          
    23     -0.858780  3 H  s                 11     -0.674934  1 N  px         
    12     -0.651614  1 N  py                 7     -0.610768  1 N  px         
     8     -0.589666  1 N  py                 3     -0.240837  1 N  px         
     4     -0.232516  1 N  py                20      0.208991  2 H  s          

 Vector   12  Occ=0.000000D+00  E= 2.084313D-01  Symmetry=a1
              MO Center=  5.4D-15, -3.0D-15, -2.8D-01, r^2= 4.7D+00
   Bfn.  Coefficient  Atom+Function         Bfn.  Coefficient  Atom+Function  
  ----- ------------  ---------------      ----- ------------  ---------------
    10      2.656668  1 N  s                 21     -1.651303  2 H  s          
    23     -1.651303  3 H  s                 25     -1.651303  4 H  s          
     6      1.371052  1 N  s                  9     -0.569915  1 N  pz         
    13     -0.419442  1 N  pz                 5     -0.190532  1 N  pz         
    20     -0.153918  2 H  s                 22     -0.153918  3 H  s          

 Vector   13  Occ=0.000000D+00  E= 8.189491D-01  Symmetry=e
              MO Center= -8.9D-02, -5.7D-02,  3.4D-02, r^2= 1.9D+00
   Bfn.  Coefficient  Atom+Function         Bfn.  Coefficient  Atom+Function  
  ----- ------------  ---------------      ----- ------------  ---------------
     7      1.313697  1 N  px                25      1.066009  4 H  s          
     8     -1.057870  1 N  py                23     -0.941011  3 H  s          
     3     -0.804482  1 N  px                 4      0.647819  1 N  py         
    24     -0.230667  4 H  s                 22      0.203619  3 H  s          

 Vector   14  Occ=0.000000D+00  E= 8.189491D-01  Symmetry=e
              MO Center=  8.9D-02,  5.7D-02,  3.4D-02, r^2= 1.9D+00
   Bfn.  Coefficient  Atom+Function         Bfn.  Coefficient  Atom+Function  
  ----- ------------  ---------------      ----- ------------  ---------------
     8      1.313697  1 N  py                21     -1.158754  2 H  s          
     7      1.057870  1 N  px                 4     -0.804482  1 N  py         
    23      0.687628  3 H  s                  3     -0.647819  1 N  px         
    25      0.471126  4 H  s                 20      0.250735  2 H  s          

 Vector   15  Occ=0.000000D+00  E= 8.528998D-01  Symmetry=a1
              MO Center=  1.5D-16,  1.4D-16,  1.7D-01, r^2= 2.1D+00
   Bfn.  Coefficient  Atom+Function         Bfn.  Coefficient  Atom+Function  
  ----- ------------  ---------------      ----- ------------  ---------------
     9      1.594253  1 N  pz                 5     -1.018515  1 N  pz         
     6     -0.784932  1 N  s                 10     -0.681249  1 N  s          
    21      0.603692  2 H  s                 23      0.603692  3 H  s          
    25      0.603692  4 H  s                 13     -0.486346  1 N  pz         
     2      0.165718  1 N  s          


 center of mass
 --------------
 x =   0.00000000 y =  -0.00000000 z =   0.08404789

 moments of inertia (a.u.)
 ------------------
           6.875916168729           0.000000000000           0.000000000000
           0.000000000000           6.875916168729           0.000000000000
           0.000000000000           0.000000000000          11.407922994090

     Multipole analysis of the density
     ---------------------------------

     L   x y z        total         alpha         beta         nuclear
     -   - - -        -----         -----         ----         -------
     0   0 0 0     -0.000000     -5.000000     -5.000000     10.000000

     1   1 0 0     -0.000000     -0.000000     -0.000000      0.000000
     1   0 1 0     -0.000000      0.000000      0.000000     -0.000000
     1   0 0 1     -0.621892     -0.310946     -0.310946      0.000000

     2   2 0 0     -4.886264     -5.272969     -5.272969      5.659675
     2   1 1 0     -0.000000     -0.000000     -0.000000     -0.000000
     2   1 0 1      0.000000      0.000000      0.000000      0.000000
     2   0 2 0     -4.886264     -5.272969     -5.272969      5.659675
     2   0 1 1      0.000000     -0.000000     -0.000000      0.000000
     2   0 0 2     -7.950359     -4.470056     -4.470056      0.989753


 Parallel integral file used       1 records with       0 large values



                            NWChem DFT Gradient Module
                            --------------------------


                                 H3N1 dft optimize



  charge          =   0.00
  wavefunction    = closed shell

  Rotation of axis 
  Using symmetry


                         DFT ENERGY GRADIENTS

    atom               coordinates                        gradient
                 x          y          z           x          y          z
   1 N       0.000000   0.000000   0.205956    0.000000   0.000000   0.017149
   2 H       1.373520   1.373520  -0.480565    0.023966   0.023966  -0.005716
   3 H       0.502743  -1.876264  -0.480565    0.008772  -0.032738  -0.005716
   4 H      -1.876264   0.502743  -0.480565   -0.032738   0.008772  -0.005716

                 ----------------------------------------
                 |  Time  |  1-e(secs)   |  2-e(secs)   |
                 ----------------------------------------
                 |  CPU   |       0.00   |       0.03   |
                 ----------------------------------------
                 |  WALL  |       0.00   |       0.03   |
                 ----------------------------------------

@ Step       Energy      Delta E   Gmax     Grms     Xrms     Xmax   Walltime
@ ---- ---------------- -------- -------- -------- -------- -------- --------
@    0     -56.16190110  0.0D+00  0.03274  0.01788  0.00000  0.00000      0.7
                                                                    


                                 NWChem DFT Module
                                 -----------------


                                 H3N1 dft optimize


  Caching 1-el integrals 
  Rotation of axis 

            General Information
            -------------------
          SCF calculation type: DFT
          Wavefunction type:  closed shell.
          No. of atoms     :     4
          No. of electrons :    10
           Alpha electrons :     5
            Beta electrons :     5
          Charge           :     0
          Spin multiplicity:     1
          Use of symmetry is: on ; symmetry adaption is: on 
          Maximum number of iterations:  30
          AO basis - number of functions:    25
                     number of shells:    14
          Convergence on energy requested: 1.00D-06
          Convergence on density requested: 1.00D-05
          Convergence on gradient requested: 5.00D-04

              XC Information
              --------------
          PerdewBurkeErnzerhof Exchange Functional  1.000          

             Grid Information
             ----------------
          Grid used for XC integration:  medium    
          Radial quadrature: Mura-Knowles        
          Angular quadrature: Lebedev. 
          Tag              B.-S. Rad. Rad. Pts. Rad. Cut. Ang. Pts.
          ---              ---------- --------- --------- ---------
          N                   0.65       49           6.0       434
          H                   0.35       45           7.0       434
          Grid pruning is: on 
          Number of quadrature shells:    94
          Spatial weights used:  Erf1

          Convergence Information
          -----------------------
          Convergence aids based upon iterative change in 
          total energy or number of iterations. 
          Levelshifting, if invoked, occurs when the 
          HOMO/LUMO gap drops below (HL_TOL): 1.00D-02
          DIIS, if invoked, will attempt to extrapolate 
          using up to (NFOCK): 10 stored Fock matrices.

                    Damping( 0%)  Levelshifting(0.5)       DIIS
                  --------------- ------------------- ---------------
          dE  on:    start            ASAP                start   
          dE off:    2 iters         30 iters            30 iters 


      Screening Tolerance Information
      -------------------------------
          Density screening/tol_rho: 1.00D-10
          AO Gaussian exp screening on grid/accAOfunc:  14
          CD Gaussian exp screening on grid/accCDfunc:  20
          XC Gaussian exp screening on grid/accXCfunc:  20
          Schwarz screening/accCoul: 1.00D-08


 Loading old vectors from job with title :

H3N1 dft optimize


      Symmetry analysis of molecular orbitals - initial
      -------------------------------------------------

  Numbering of irreducible representations: 

     1 a1          2 a2          3 e       

  Orbital symmetries:

     1 a1          2 a1          3 e           4 e           5 a1      
     6 a1          7 e           8 e           9 a1         10 e       
    11 e          12 a1         13 e          14 e          15 a1      

   Time after variat. SCF:      0.7
   Time prior to 1st pass:      0.7

 #quartets = 2.175D+03 #integrals = 1.621D+04 #direct =  0.0% #cached =100.0%


 Integral file          = ./NH3.aoints.0
 Record size in doubles =  65536        No. of integs per rec  =  43688
 Max. records in memory =      2        Max. records in file   = 185718
 No. of bits per label  =      8        No. of bits per value  =     64


 Grid_pts file          = ./NH3.gridpts.0
 Record size in doubles =  12289        No. of grid_pts per rec  =   3070
 Max. records in memory =     16        Max. recs in file   =    990422


           Memory utilization after 1st SCF pass: 
           Heap Space remaining (MW):       32.44            32438492
          Stack Space remaining (MW):       32.77            32767739

   convergence    iter        energy       DeltaE   RMS-Dens  Diis-err    time
 ---------------- ----- ----------------- --------- --------- ---------  ------
 d= 0,ls=0.0,diis     1    -56.1666332259 -6.77D+01  3.99D-03  7.18D-03     0.8
 d= 0,ls=0.0,diis     2    -56.1662171521  4.16D-04  2.70D-03  1.21D-02     0.9
 d= 0,ls=0.0,diis     3    -56.1674384682 -1.22D-03  7.75D-04  1.25D-03     0.9
 d= 0,ls=0.0,diis     4    -56.1675731206 -1.35D-04  1.23D-04  8.81D-06     1.0
 d= 0,ls=0.0,diis     5    -56.1675741236 -1.00D-06  7.83D-06  6.69D-08     1.1
 d= 0,ls=0.0,diis     6    -56.1675741331 -9.46D-09  3.62D-07  1.35D-10     1.2


         Total DFT energy =      -56.167574133094
      One electron energy =      -98.604829335579
           Coulomb energy =       38.473370042896
    Exchange-Corr. energy =       -7.553523618320
 Nuclear repulsion energy =       11.517408777908

 Numeric. integr. density =       10.000000342564

     Total iterative time =      0.5s



                  Occupations of the irreducible representations
                  ----------------------------------------------

                     irrep           alpha         beta
                     --------     --------     --------
                     a1                3.0          3.0
                     a2                0.0          0.0
                     e                 2.0          2.0


                       DFT Final Molecular Orbital Analysis
                       ------------------------------------

 Vector    1  Occ=2.000000D+00  E=-1.398957D+01  Symmetry=a1
              MO Center=  6.4D-22,  4.5D-22,  1.3D-01, r^2= 2.0D-02
   Bfn.  Coefficient  Atom+Function         Bfn.  Coefficient  Atom+Function  
  ----- ------------  ---------------      ----- ------------  ---------------
     1      0.992293  1 N  s          

 Vector    2  Occ=2.000000D+00  E=-7.346593D-01  Symmetry=a1
              MO Center= -9.9D-17, -1.1D-16, -7.6D-02, r^2= 7.1D-01
   Bfn.  Coefficient  Atom+Function         Bfn.  Coefficient  Atom+Function  
  ----- ------------  ---------------      ----- ------------  ---------------
     6      0.454674  1 N  s                  2      0.421536  1 N  s          
     1     -0.200381  1 N  s          

 Vector    3  Occ=2.000000D+00  E=-3.792117D-01  Symmetry=e
              MO Center=  1.4D-01,  1.5D-01, -4.5D-02, r^2= 1.0D+00
   Bfn.  Coefficient  Atom+Function         Bfn.  Coefficient  Atom+Function  
  ----- ------------  ---------------      ----- ------------  ---------------
     3      0.344136  1 N  px                 4      0.338801  1 N  py         
    20      0.283846  2 H  s                 21      0.175959  2 H  s          
     7      0.167881  1 N  px                 8      0.165278  1 N  py         

 Vector    4  Occ=2.000000D+00  E=-3.792117D-01  Symmetry=e
              MO Center= -1.4D-01, -1.5D-01, -4.5D-02, r^2= 1.0D+00
   Bfn.  Coefficient  Atom+Function         Bfn.  Coefficient  Atom+Function  
  ----- ------------  ---------------      ----- ------------  ---------------
     4     -0.344136  1 N  py                 3      0.338801  1 N  px         
    22      0.246926  3 H  s                 24     -0.244709  4 H  s          
     8     -0.167881  1 N  py                 7      0.165278  1 N  px         
    23      0.153073  3 H  s                 25     -0.151698  4 H  s          

 Vector    5  Occ=2.000000D+00  E=-1.902267D-01  Symmetry=a1
              MO Center= -2.2D-16, -7.7D-17,  2.8D-01, r^2= 1.1D+00
   Bfn.  Coefficient  Atom+Function         Bfn.  Coefficient  Atom+Function  
  ----- ------------  ---------------      ----- ------------  ---------------
     5      0.549658  1 N  pz                 9      0.390725  1 N  pz         
     6      0.252787  1 N  s                 13      0.183787  1 N  pz         
     2      0.166973  1 N  s          

 Vector    6  Occ=0.000000D+00  E= 7.681524D-03  Symmetry=a1
              MO Center=  3.1D-16, -1.8D-16, -5.8D-01, r^2= 4.5D+00
   Bfn.  Coefficient  Atom+Function         Bfn.  Coefficient  Atom+Function  
  ----- ------------  ---------------      ----- ------------  ---------------
    10      1.476413  1 N  s                  6     -0.876791  1 N  s          
    13     -0.379549  1 N  pz                 5      0.191176  1 N  pz         
     2     -0.166430  1 N  s                  9      0.158384  1 N  pz         

 Vector    7  Occ=0.000000D+00  E= 8.092577D-02  Symmetry=e
              MO Center=  8.8D-03,  1.0D-02,  1.4D-01, r^2= 6.3D+00
   Bfn.  Coefficient  Atom+Function         Bfn.  Coefficient  Atom+Function  
  ----- ------------  ---------------      ----- ------------  ---------------
    12     -0.874090  1 N  py                11      0.814662  1 N  px         
     8      0.314353  1 N  py                 7     -0.292980  1 N  px         
     4      0.203754  1 N  py                 3     -0.189902  1 N  px         

 Vector    8  Occ=0.000000D+00  E= 8.092577D-02  Symmetry=e
              MO Center= -8.8D-03, -1.0D-02,  1.4D-01, r^2= 6.3D+00
   Bfn.  Coefficient  Atom+Function         Bfn.  Coefficient  Atom+Function  
  ----- ------------  ---------------      ----- ------------  ---------------
    11      0.874090  1 N  px                12      0.814662  1 N  py         
     7     -0.314353  1 N  px                 8     -0.292980  1 N  py         
     3     -0.203754  1 N  px                 4     -0.189902  1 N  py         

 Vector    9  Occ=0.000000D+00  E= 1.112346D-01  Symmetry=a1
              MO Center=  2.7D-16,  8.6D-16,  6.5D-01, r^2= 5.9D+00
   Bfn.  Coefficient  Atom+Function         Bfn.  Coefficient  Atom+Function  
  ----- ------------  ---------------      ----- ------------  ---------------
    13      1.208380  1 N  pz                 6     -0.668057  1 N  s          
     9     -0.351744  1 N  pz                21      0.274393  2 H  s          
    23      0.274393  3 H  s                 25      0.274393  4 H  s          
     5     -0.235403  1 N  pz         

 Vector   10  Occ=0.000000D+00  E= 1.735300D-01  Symmetry=e
              MO Center= -8.9D-02, -1.4D-01, -7.2D-03, r^2= 3.3D+00
   Bfn.  Coefficient  Atom+Function         Bfn.  Coefficient  Atom+Function  
  ----- ------------  ---------------      ----- ------------  ---------------
    23      1.713313  3 H  s                 25     -1.516803  4 H  s          
     8      0.713298  1 N  py                12      0.676837  1 N  py         
     7     -0.577304  1 N  px                11     -0.547794  1 N  px         
     4      0.264520  1 N  py                 3     -0.214088  1 N  px         
    21     -0.196510  2 H  s                 22      0.187091  3 H  s          

 Vector   11  Occ=0.000000D+00  E= 1.735300D-01  Symmetry=e
              MO Center=  8.9D-02,  1.4D-01, -7.2D-03, r^2= 3.3D+00
   Bfn.  Coefficient  Atom+Function         Bfn.  Coefficient  Atom+Function  
  ----- ------------  ---------------      ----- ------------  ---------------
    21      1.864909  2 H  s                 25     -1.102637  4 H  s          
    23     -0.762271  3 H  s                  7     -0.713298  1 N  px         
    11     -0.676837  1 N  px                 8     -0.577304  1 N  py         
    12     -0.547794  1 N  py                 3     -0.264520  1 N  px         
     4     -0.214088  1 N  py                20      0.203644  2 H  s          

 Vector   12  Occ=0.000000D+00  E= 2.308540D-01  Symmetry=a1
              MO Center=  1.2D-14,  3.1D-14, -3.7D-01, r^2= 4.6D+00
   Bfn.  Coefficient  Atom+Function         Bfn.  Coefficient  Atom+Function  
  ----- ------------  ---------------      ----- ------------  ---------------
    10      2.722018  1 N  s                 21     -1.825051  2 H  s          
    23     -1.825051  3 H  s                 25     -1.825051  4 H  s          
     6      1.752082  1 N  s                  9     -0.674483  1 N  pz         
    13     -0.524748  1 N  pz                 5     -0.204958  1 N  pz         

 Vector   13  Occ=0.000000D+00  E= 8.288245D-01  Symmetry=e
              MO Center= -5.0D-03,  3.8D-02,  1.6D-01, r^2= 2.0D+00
   Bfn.  Coefficient  Atom+Function         Bfn.  Coefficient  Atom+Function  
  ----- ------------  ---------------      ----- ------------  ---------------
     8      1.692700  1 N  py                 4     -0.964412  1 N  py         
    23      0.699604  3 H  s                  7     -0.573010  1 N  px         
    25     -0.389002  4 H  s                 12     -0.385141  1 N  py         
     3      0.326471  1 N  px                21     -0.310601  2 H  s          

 Vector   14  Occ=0.000000D+00  E= 8.288245D-01  Symmetry=e
              MO Center=  5.0D-03, -3.8D-02,  1.6D-01, r^2= 2.0D+00
   Bfn.  Coefficient  Atom+Function         Bfn.  Coefficient  Atom+Function  
  ----- ------------  ---------------      ----- ------------  ---------------
     7      1.692700  1 N  px                 3     -0.964412  1 N  px         
    21     -0.628507  2 H  s                 25      0.583242  4 H  s          
     8      0.573010  1 N  py                11     -0.385141  1 N  px         
     4     -0.326471  1 N  py         

 Vector   15  Occ=0.000000D+00  E= 8.593319D-01  Symmetry=a1
              MO Center=  6.4D-16,  4.9D-15,  2.5D-01, r^2= 2.1D+00
   Bfn.  Coefficient  Atom+Function         Bfn.  Coefficient  Atom+Function  
  ----- ------------  ---------------      ----- ------------  ---------------
     9      1.645153  1 N  pz                 5     -1.019575  1 N  pz         
     6     -0.687192  1 N  s                 10     -0.658081  1 N  s          
    21      0.546328  2 H  s                 23      0.546328  3 H  s          
    25      0.546328  4 H  s                 13     -0.502408  1 N  pz         


 center of mass
 --------------
 x =   0.00000000 y =  -0.00000000 z =   0.11072064

 moments of inertia (a.u.)
 ------------------
           6.481437446254           0.000000000000           0.000000000000
           0.000000000000           6.481437446254          -0.000000000000
           0.000000000000          -0.000000000000          10.289993213217

     Multipole analysis of the density
     ---------------------------------

     L   x y z        total         alpha         beta         nuclear
     -   - - -        -----         -----         ----         -------
     0   0 0 0     -0.000000     -5.000000     -5.000000     10.000000

     1   1 0 0      0.000000      0.000000      0.000000      0.000000
     1   0 1 0     -0.000000     -0.000000     -0.000000     -0.000000
     1   0 0 1     -0.689907     -0.449794     -0.449794      0.209682

     2   2 0 0     -4.949785     -5.027417     -5.027417      5.105050
     2   1 1 0      0.000000      0.000000      0.000000     -0.000000
     2   1 0 1      0.000000      0.000000      0.000000     -0.000000
     2   0 2 0     -4.949785     -5.027417     -5.027417      5.105050
     2   0 1 1      0.000000      0.000000      0.000000      0.000000
     2   0 0 2     -7.773135     -4.453100     -4.453100      1.133064


 Parallel integral file used       1 records with       0 large values

 Line search: 
     step= 1.00 grad=-9.1D-03 hess= 3.5D-03 energy=    -56.167574 mode=downhill
 new step= 1.32                   predicted energy=    -56.167930

          --------
          Step   1
          --------


                         Geometry "geometry" -> "geometry"
                         ---------------------------------

 Output coordinates in angstroms (scale by  1.889725989 to convert to a.u.)

  No.       Tag          Charge          X              Y              Z
 ---- ---------------- ---------- -------------- -------------- --------------
    1 N                    7.0000     0.00000000     0.00000000     0.13341724
    2 H                    1.0000     0.67857682     0.67857682    -0.26244720
    3 H                    1.0000     0.24837636    -0.92695318    -0.26244720
    4 H                    1.0000    -0.92695318     0.24837636    -0.26244720

      Atomic Mass 
      ----------- 

      N                 14.003070
      H                  1.007825


 Effective nuclear repulsion energy (a.u.)      11.6600138149

            Nuclear Dipole moment (a.u.) 
            ----------------------------
        X                 Y               Z
 ---------------- ---------------- ----------------
    -0.0000000000    -0.0000000000     0.2769943094

      Symmetry information
      --------------------

 Group name             C3v       
 Group number             17
 Group order               6
 No. of unique centers     2

      Symmetry unique atoms

     1    2


                                 NWChem DFT Module
                                 -----------------


                                 H3N1 dft optimize


  Caching 1-el integrals 
  Rotation of axis 

            General Information
            -------------------
          SCF calculation type: DFT
          Wavefunction type:  closed shell.
          No. of atoms     :     4
          No. of electrons :    10
           Alpha electrons :     5
            Beta electrons :     5
          Charge           :     0
          Spin multiplicity:     1
          Use of symmetry is: on ; symmetry adaption is: on 
          Maximum number of iterations:  30
          AO basis - number of functions:    25
                     number of shells:    14
          Convergence on energy requested: 1.00D-06
          Convergence on density requested: 1.00D-05
          Convergence on gradient requested: 5.00D-04

              XC Information
              --------------
          PerdewBurkeErnzerhof Exchange Functional  1.000          

             Grid Information
             ----------------
          Grid used for XC integration:  medium    
          Radial quadrature: Mura-Knowles        
          Angular quadrature: Lebedev. 
          Tag              B.-S. Rad. Rad. Pts. Rad. Cut. Ang. Pts.
          ---              ---------- --------- --------- ---------
          N                   0.65       49           6.0       434
          H                   0.35       45           7.0       434
          Grid pruning is: on 
          Number of quadrature shells:    94
          Spatial weights used:  Erf1

          Convergence Information
          -----------------------
          Convergence aids based upon iterative change in 
          total energy or number of iterations. 
          Levelshifting, if invoked, occurs when the 
          HOMO/LUMO gap drops below (HL_TOL): 1.00D-02
          DIIS, if invoked, will attempt to extrapolate 
          using up to (NFOCK): 10 stored Fock matrices.

                    Damping( 0%)  Levelshifting(0.5)       DIIS
                  --------------- ------------------- ---------------
          dE  on:    start            ASAP                start   
          dE off:    2 iters         30 iters            30 iters 


      Screening Tolerance Information
      -------------------------------
          Density screening/tol_rho: 1.00D-10
          AO Gaussian exp screening on grid/accAOfunc:  14
          CD Gaussian exp screening on grid/accCDfunc:  20
          XC Gaussian exp screening on grid/accXCfunc:  20
          Schwarz screening/accCoul: 1.00D-08


 Loading old vectors from job with title :

H3N1 dft optimize


      Symmetry analysis of molecular orbitals - initial
      -------------------------------------------------

  Numbering of irreducible representations: 

     1 a1          2 a2          3 e       

  Orbital symmetries:

     1 a1          2 a1          3 e           4 e           5 a1      
     6 a1          7 e           8 e           9 a1         10 e       
    11 e          12 a1         13 e          14 e          15 a1      

   Time after variat. SCF:      1.2
   Time prior to 1st pass:      1.2

 #quartets = 2.175D+03 #integrals = 1.621D+04 #direct =  0.0% #cached =100.0%


 Integral file          = ./NH3.aoints.0
 Record size in doubles =  65536        No. of integs per rec  =  43688
 Max. records in memory =      2        Max. records in file   = 185718
 No. of bits per label  =      8        No. of bits per value  =     64


 Grid_pts file          = ./NH3.gridpts.0
 Record size in doubles =  12289        No. of grid_pts per rec  =   3070
 Max. records in memory =     16        Max. recs in file   =    990422


           Memory utilization after 1st SCF pass: 
           Heap Space remaining (MW):       32.44            32438492
          Stack Space remaining (MW):       32.77            32767739

   convergence    iter        energy       DeltaE   RMS-Dens  Diis-err    time
 ---------------- ----- ----------------- --------- --------- ---------  ------
 d= 0,ls=0.0,diis     1    -56.1677127316 -6.78D+01  1.25D-03  7.80D-04     1.3
 d= 0,ls=0.0,diis     2    -56.1676787300  3.40D-05  8.70D-04  1.19D-03     1.4
 d= 0,ls=0.0,diis     3    -56.1677965366 -1.18D-04  2.65D-04  1.47D-04     1.4
 d= 0,ls=0.0,diis     4    -56.1678124235 -1.59D-05  3.97D-05  9.68D-07     1.5
 d= 0,ls=0.0,diis     5    -56.1678125327 -1.09D-07  2.40D-06  5.70D-09     1.5


         Total DFT energy =      -56.167812532711
      One electron energy =      -98.863751055453
           Coulomb energy =       38.604142518809
    Exchange-Corr. energy =       -7.568217811006
 Nuclear repulsion energy =       11.660013814939

 Numeric. integr. density =       10.000000221262

     Total iterative time =      0.4s



                  Occupations of the irreducible representations
                  ----------------------------------------------

                     irrep           alpha         beta
                     --------     --------     --------
                     a1                3.0          3.0
                     a2                0.0          0.0
                     e                 2.0          2.0


                       DFT Final Molecular Orbital Analysis
                       ------------------------------------

 Vector    1  Occ=2.000000D+00  E=-1.398649D+01  Symmetry=a1
              MO Center=  9.1D-19, -8.7D-19,  1.3D-01, r^2= 2.0D-02
   Bfn.  Coefficient  Atom+Function         Bfn.  Coefficient  Atom+Function  
  ----- ------------  ---------------      ----- ------------  ---------------
     1      0.992278  1 N  s          

 Vector    2  Occ=2.000000D+00  E=-7.403814D-01  Symmetry=a1
              MO Center=  2.2D-17,  6.3D-18, -7.8D-02, r^2= 7.0D-01
   Bfn.  Coefficient  Atom+Function         Bfn.  Coefficient  Atom+Function  
  ----- ------------  ---------------      ----- ------------  ---------------
     6      0.451863  1 N  s                  2      0.420076  1 N  s          
     1     -0.200024  1 N  s          

 Vector    3  Occ=2.000000D+00  E=-3.810985D-01  Symmetry=e
              MO Center=  8.3D-02,  1.8D-01, -4.2D-02, r^2= 1.0D+00
   Bfn.  Coefficient  Atom+Function         Bfn.  Coefficient  Atom+Function  
  ----- ------------  ---------------      ----- ------------  ---------------
     3      0.398624  1 N  px                20      0.279602  2 H  s          
     4      0.276262  1 N  py                 7      0.192785  1 N  px         
    24     -0.183703  4 H  s                 21      0.172777  2 H  s          

 Vector    4  Occ=2.000000D+00  E=-3.810985D-01  Symmetry=e
              MO Center= -8.3D-02, -1.8D-01, -4.2D-02, r^2= 1.0D+00
   Bfn.  Coefficient  Atom+Function         Bfn.  Coefficient  Atom+Function  
  ----- ------------  ---------------      ----- ------------  ---------------
     4      0.398624  1 N  py                 3     -0.276262  1 N  px         
    22     -0.267489  3 H  s                 24      0.216795  4 H  s          
     8      0.192785  1 N  py                23     -0.165292  3 H  s          

 Vector    5  Occ=2.000000D+00  E=-1.921077D-01  Symmetry=a1
              MO Center=  4.3D-19,  2.2D-18,  2.9D-01, r^2= 1.1D+00
   Bfn.  Coefficient  Atom+Function         Bfn.  Coefficient  Atom+Function  
  ----- ------------  ---------------      ----- ------------  ---------------
     5      0.547906  1 N  pz                 9      0.390225  1 N  pz         
     6      0.255593  1 N  s                 13      0.181577  1 N  pz         
     2      0.171083  1 N  s          

 Vector    6  Occ=0.000000D+00  E= 8.190953D-03  Symmetry=a1
              MO Center= -2.4D-16, -7.3D-16, -6.1D-01, r^2= 4.5D+00
   Bfn.  Coefficient  Atom+Function         Bfn.  Coefficient  Atom+Function  
  ----- ------------  ---------------      ----- ------------  ---------------
    10      1.512488  1 N  s                  6     -0.829423  1 N  s          
    13     -0.405511  1 N  pz                 5      0.190519  1 N  pz         
     2     -0.164843  1 N  s          

 Vector    7  Occ=0.000000D+00  E= 8.153275D-02  Symmetry=e
              MO Center= -1.0D-02, -1.6D-02,  1.5D-01, r^2= 6.3D+00
   Bfn.  Coefficient  Atom+Function         Bfn.  Coefficient  Atom+Function  
  ----- ------------  ---------------      ----- ------------  ---------------
    11      0.938589  1 N  px                12      0.750174  1 N  py         
     7     -0.326638  1 N  px                 8     -0.261068  1 N  py         
     3     -0.212263  1 N  px                 4     -0.169652  1 N  py         

 Vector    8  Occ=0.000000D+00  E= 8.153275D-02  Symmetry=e
              MO Center=  1.0D-02,  1.6D-02,  1.5D-01, r^2= 6.3D+00
   Bfn.  Coefficient  Atom+Function         Bfn.  Coefficient  Atom+Function  
  ----- ------------  ---------------      ----- ------------  ---------------
    12      0.938589  1 N  py                11     -0.750174  1 N  px         
     8     -0.326638  1 N  py                 7      0.261068  1 N  px         
     4     -0.212263  1 N  py                 3      0.169652  1 N  px         

 Vector    9  Occ=0.000000D+00  E= 1.116009D-01  Symmetry=a1
              MO Center=  2.5D-16, -2.2D-16,  7.0D-01, r^2= 5.9D+00
   Bfn.  Coefficient  Atom+Function         Bfn.  Coefficient  Atom+Function  
  ----- ------------  ---------------      ----- ------------  ---------------
    13      1.202265  1 N  pz                 6     -0.682212  1 N  s          
     9     -0.349437  1 N  pz                21      0.265032  2 H  s          
    23      0.265032  3 H  s                 25      0.265032  4 H  s          
     5     -0.233052  1 N  pz                10      0.160085  1 N  s          

 Vector   10  Occ=0.000000D+00  E= 1.775950D-01  Symmetry=e
              MO Center= -1.1D-01, -1.3D-01, -1.6D-02, r^2= 3.3D+00
   Bfn.  Coefficient  Atom+Function         Bfn.  Coefficient  Atom+Function  
  ----- ------------  ---------------      ----- ------------  ---------------
    23      1.691712  3 H  s                 25     -1.613102  4 H  s          
     8      0.689258  1 N  py                 7     -0.634711  1 N  px         
    12      0.627311  1 N  py                11     -0.577667  1 N  px         
     4      0.250704  1 N  py                 3     -0.230864  1 N  px         
    22      0.180007  3 H  s                 24     -0.171642  4 H  s          

 Vector   11  Occ=0.000000D+00  E= 1.775950D-01  Symmetry=e
              MO Center=  1.1D-01,  1.3D-01, -1.6D-02, r^2= 3.3D+00
   Bfn.  Coefficient  Atom+Function         Bfn.  Coefficient  Atom+Function  
  ----- ------------  ---------------      ----- ------------  ---------------
    21      1.908035  2 H  s                 25     -1.022095  4 H  s          
    23     -0.885940  3 H  s                  7     -0.689258  1 N  px         
     8     -0.634711  1 N  py                11     -0.627311  1 N  px         
    12     -0.577667  1 N  py                 3     -0.250704  1 N  px         
     4     -0.230864  1 N  py                20      0.203025  2 H  s          

 Vector   12  Occ=0.000000D+00  E= 2.383160D-01  Symmetry=a1
              MO Center=  4.1D-15, -4.9D-15, -4.0D-01, r^2= 4.6D+00
   Bfn.  Coefficient  Atom+Function         Bfn.  Coefficient  Atom+Function  
  ----- ------------  ---------------      ----- ------------  ---------------
    10      2.746769  1 N  s                  6      1.873768  1 N  s          
    21     -1.881488  2 H  s                 23     -1.881488  3 H  s          
    25     -1.881488  4 H  s                  9     -0.710056  1 N  pz         
    13     -0.559784  1 N  pz                 5     -0.209662  1 N  pz         

 Vector   13  Occ=0.000000D+00  E= 8.290971D-01  Symmetry=e
              MO Center= -4.1D-02,  6.2D-02,  1.9D-01, r^2= 2.1D+00
   Bfn.  Coefficient  Atom+Function         Bfn.  Coefficient  Atom+Function  
  ----- ------------  ---------------      ----- ------------  ---------------
     8      1.771504  1 N  py                 4     -0.978329  1 N  py         
    23      0.499090  3 H  s                 12     -0.495832  1 N  py         
    21     -0.319139  2 H  s                  7     -0.181603  1 N  px         
    25     -0.179951  4 H  s                 22      0.151334  3 H  s          

 Vector   14  Occ=0.000000D+00  E= 8.290971D-01  Symmetry=e
              MO Center=  4.1D-02, -6.2D-02,  1.9D-01, r^2= 2.1D+00
   Bfn.  Coefficient  Atom+Function         Bfn.  Coefficient  Atom+Function  
  ----- ------------  ---------------      ----- ------------  ---------------
     7      1.771504  1 N  px                 3     -0.978329  1 N  px         
    11     -0.495832  1 N  px                25      0.472404  4 H  s          
    21     -0.392045  2 H  s                  8      0.181603  1 N  py         

 Vector   15  Occ=0.000000D+00  E= 8.613917D-01  Symmetry=a1
              MO Center=  1.4D-17, -4.0D-17,  2.7D-01, r^2= 2.1D+00
   Bfn.  Coefficient  Atom+Function         Bfn.  Coefficient  Atom+Function  
  ----- ------------  ---------------      ----- ------------  ---------------
     9      1.661756  1 N  pz                 5     -1.017534  1 N  pz         
     6     -0.669401  1 N  s                 10     -0.667496  1 N  s          
    21      0.543242  2 H  s                 23      0.543242  3 H  s          
    25      0.543242  4 H  s                 13     -0.501964  1 N  pz         


 center of mass
 --------------
 x =  -0.00000000 y =  -0.00000000 z =   0.11928316

 moments of inertia (a.u.)
 ------------------
           6.363201613429           0.000000000000          -0.000000000000
           0.000000000000           6.363201613429          -0.000000000000
          -0.000000000000          -0.000000000000           9.943335510058

     Multipole analysis of the density
     ---------------------------------

     L   x y z        total         alpha         beta         nuclear
     -   - - -        -----         -----         ----         -------
     0   0 0 0     -0.000000     -5.000000     -5.000000     10.000000

     1   1 0 0      0.000000      0.000000      0.000000     -0.000000
     1   0 1 0      0.000000      0.000000      0.000000     -0.000000
     1   0 0 1     -0.712544     -0.494769     -0.494769      0.276994

     2   2 0 0     -4.969732     -4.951399     -4.951399      4.933067
     2   1 1 0      0.000000      0.000000      0.000000      0.000000
     2   1 0 1     -0.000000     -0.000000     -0.000000      0.000000
     2   0 2 0     -4.969732     -4.951399     -4.951399      4.933067
     2   0 1 1     -0.000000     -0.000000     -0.000000      0.000000
     2   0 0 2     -7.714312     -4.448590     -4.448590      1.182868


 Parallel integral file used       1 records with       0 large values



                            NWChem DFT Gradient Module
                            --------------------------


                                 H3N1 dft optimize



  charge          =   0.00
  wavefunction    = closed shell

  Rotation of axis 
  Using symmetry


                         DFT ENERGY GRADIENTS

    atom               coordinates                        gradient
                 x          y          z           x          y          z
   1 N       0.000000   0.000000   0.252122    0.000000   0.000000  -0.001058
   2 H       1.282324   1.282324  -0.495953   -0.001432  -0.001432   0.000353
   3 H       0.469363  -1.751688  -0.495953   -0.000524   0.001956   0.000353
   4 H      -1.751688   0.469363  -0.495953    0.001956  -0.000524   0.000353

                 ----------------------------------------
                 |  Time  |  1-e(secs)   |  2-e(secs)   |
                 ----------------------------------------
                 |  CPU   |       0.00   |       0.03   |
                 ----------------------------------------
                 |  WALL  |       0.00   |       0.03   |
                 ----------------------------------------

  Step       Energy      Delta E   Gmax     Grms     Xrms     Xmax   Walltime
  ---- ---------------- -------- -------- -------- -------- -------- --------
@    1     -56.16781253 -5.9D-03  0.00196  0.00107  0.06630  0.12458      1.9
                                                                    


                                 NWChem DFT Module
                                 -----------------


                                 H3N1 dft optimize


  Caching 1-el integrals 
  Rotation of axis 

            General Information
            -------------------
          SCF calculation type: DFT
          Wavefunction type:  closed shell.
          No. of atoms     :     4
          No. of electrons :    10
           Alpha electrons :     5
            Beta electrons :     5
          Charge           :     0
          Spin multiplicity:     1
          Use of symmetry is: on ; symmetry adaption is: on 
          Maximum number of iterations:  30
          AO basis - number of functions:    25
                     number of shells:    14
          Convergence on energy requested: 1.00D-06
          Convergence on density requested: 1.00D-05
          Convergence on gradient requested: 5.00D-04

              XC Information
              --------------
          PerdewBurkeErnzerhof Exchange Functional  1.000          

             Grid Information
             ----------------
          Grid used for XC integration:  medium    
          Radial quadrature: Mura-Knowles        
          Angular quadrature: Lebedev. 
          Tag              B.-S. Rad. Rad. Pts. Rad. Cut. Ang. Pts.
          ---              ---------- --------- --------- ---------
          N                   0.65       49           6.0       434
          H                   0.35       45           7.0       434
          Grid pruning is: on 
          Number of quadrature shells:    94
          Spatial weights used:  Erf1

          Convergence Information
          -----------------------
          Convergence aids based upon iterative change in 
          total energy or number of iterations. 
          Levelshifting, if invoked, occurs when the 
          HOMO/LUMO gap drops below (HL_TOL): 1.00D-02
          DIIS, if invoked, will attempt to extrapolate 
          using up to (NFOCK): 10 stored Fock matrices.

                    Damping( 0%)  Levelshifting(0.5)       DIIS
                  --------------- ------------------- ---------------
          dE  on:    start            ASAP                start   
          dE off:    2 iters         30 iters            30 iters 


      Screening Tolerance Information
      -------------------------------
          Density screening/tol_rho: 1.00D-10
          AO Gaussian exp screening on grid/accAOfunc:  14
          CD Gaussian exp screening on grid/accCDfunc:  20
          XC Gaussian exp screening on grid/accXCfunc:  20
          Schwarz screening/accCoul: 1.00D-08


 Loading old vectors from job with title :

H3N1 dft optimize


      Symmetry analysis of molecular orbitals - initial
      -------------------------------------------------

  Numbering of irreducible representations: 

     1 a1          2 a2          3 e       

  Orbital symmetries:

     1 a1          2 a1          3 e           4 e           5 a1      
     6 a1          7 e           8 e           9 a1         10 e       
    11 e          12 a1         13 e          14 e          15 a1      

   Time after variat. SCF:      1.7
   Time prior to 1st pass:      1.7

 #quartets = 2.175D+03 #integrals = 1.621D+04 #direct =  0.0% #cached =100.0%


 Integral file          = ./NH3.aoints.0
 Record size in doubles =  65536        No. of integs per rec  =  43688
 Max. records in memory =      2        Max. records in file   = 185716
 No. of bits per label  =      8        No. of bits per value  =     64


 Grid_pts file          = ./NH3.gridpts.0
 Record size in doubles =  12289        No. of grid_pts per rec  =   3070
 Max. records in memory =     16        Max. recs in file   =    990412


           Memory utilization after 1st SCF pass: 
           Heap Space remaining (MW):       32.44            32438492
          Stack Space remaining (MW):       32.77            32767739

   convergence    iter        energy       DeltaE   RMS-Dens  Diis-err    time
 ---------------- ----- ----------------- --------- --------- ---------  ------
 d= 0,ls=0.0,diis     1    -56.1678251253 -6.78D+01  2.94D-04  4.18D-05     1.9
 d= 0,ls=0.0,diis     2    -56.1678230295  2.10D-06  2.04D-04  6.61D-05     1.9
 d= 0,ls=0.0,diis     3    -56.1678296342 -6.60D-06  6.08D-05  7.73D-06     2.0
 d= 0,ls=0.0,diis     4    -56.1678304714 -8.37D-07  9.11D-06  5.03D-08     2.0


         Total DFT energy =      -56.167830471385
      One electron energy =      -98.803180796899
           Coulomb energy =       38.573546660948
    Exchange-Corr. energy =       -7.564786759119
 Nuclear repulsion energy =       11.626590423685

 Numeric. integr. density =       10.000000262228

     Total iterative time =      0.3s



                  Occupations of the irreducible representations
                  ----------------------------------------------

                     irrep           alpha         beta
                     --------     --------     --------
                     a1                3.0          3.0
                     a2                0.0          0.0
                     e                 2.0          2.0


                       DFT Final Molecular Orbital Analysis
                       ------------------------------------

 Vector    1  Occ=2.000000D+00  E=-1.398722D+01  Symmetry=a1
              MO Center=  2.8D-19, -3.1D-18,  1.3D-01, r^2= 2.0D-02
   Bfn.  Coefficient  Atom+Function         Bfn.  Coefficient  Atom+Function  
  ----- ------------  ---------------      ----- ------------  ---------------
     1      0.992282  1 N  s          

 Vector    2  Occ=2.000000D+00  E=-7.390476D-01  Symmetry=a1
              MO Center= -1.9D-17,  1.6D-17, -7.7D-02, r^2= 7.1D-01
   Bfn.  Coefficient  Atom+Function         Bfn.  Coefficient  Atom+Function  
  ----- ------------  ---------------      ----- ------------  ---------------
     6      0.452545  1 N  s                  2      0.420409  1 N  s          
     1     -0.200104  1 N  s          

 Vector    3  Occ=2.000000D+00  E=-3.806577D-01  Symmetry=e
              MO Center= -8.0D-02,  1.8D-01, -4.3D-02, r^2= 1.0D+00
   Bfn.  Coefficient  Atom+Function         Bfn.  Coefficient  Atom+Function  
  ----- ------------  ---------------      ----- ------------  ---------------
     3      0.476046  1 N  px                24     -0.255924  4 H  s          
    20      0.234765  2 H  s                  7      0.230696  1 N  px         
    25     -0.158265  4 H  s          

 Vector    4  Occ=2.000000D+00  E=-3.806577D-01  Symmetry=e
              MO Center=  8.0D-02, -1.8D-01, -4.3D-02, r^2= 1.0D+00
   Bfn.  Coefficient  Atom+Function         Bfn.  Coefficient  Atom+Function  
  ----- ------------  ---------------      ----- ------------  ---------------
     4      0.476046  1 N  py                22     -0.283300  3 H  s          
     8      0.230696  1 N  py                23     -0.175194  3 H  s          
    20      0.159974  2 H  s          

 Vector    5  Occ=2.000000D+00  E=-1.916888D-01  Symmetry=a1
              MO Center=  1.3D-18,  2.2D-18,  2.9D-01, r^2= 1.1D+00
   Bfn.  Coefficient  Atom+Function         Bfn.  Coefficient  Atom+Function  
  ----- ------------  ---------------      ----- ------------  ---------------
     5      0.548289  1 N  pz                 9      0.390329  1 N  pz         
     6      0.254988  1 N  s                 13      0.182089  1 N  pz         
     2      0.170171  1 N  s          

 Vector    6  Occ=0.000000D+00  E= 8.083440D-03  Symmetry=a1
              MO Center= -5.3D-16, -2.8D-16, -6.0D-01, r^2= 4.5D+00
   Bfn.  Coefficient  Atom+Function         Bfn.  Coefficient  Atom+Function  
  ----- ------------  ---------------      ----- ------------  ---------------
    10      1.504436  1 N  s                  6     -0.840435  1 N  s          
    13     -0.399648  1 N  pz                 5      0.190718  1 N  pz         
     2     -0.165166  1 N  s                  9      0.150216  1 N  pz         

 Vector    7  Occ=0.000000D+00  E= 8.139616D-02  Symmetry=e
              MO Center=  1.1D-02, -1.4D-02,  1.5D-01, r^2= 6.3D+00
   Bfn.  Coefficient  Atom+Function         Bfn.  Coefficient  Atom+Function  
  ----- ------------  ---------------      ----- ------------  ---------------
    11      1.196875  1 N  px                 7     -0.419689  1 N  px         
     3     -0.272553  1 N  px         

 Vector    8  Occ=0.000000D+00  E= 8.139616D-02  Symmetry=e
              MO Center= -1.1D-02,  1.4D-02,  1.5D-01, r^2= 6.3D+00
   Bfn.  Coefficient  Atom+Function         Bfn.  Coefficient  Atom+Function  
  ----- ------------  ---------------      ----- ------------  ---------------
    12      1.196875  1 N  py                 8     -0.419689  1 N  py         
     4     -0.272553  1 N  py         

 Vector    9  Occ=0.000000D+00  E= 1.115139D-01  Symmetry=a1
              MO Center=  1.0D-17,  1.4D-17,  6.9D-01, r^2= 5.9D+00
   Bfn.  Coefficient  Atom+Function         Bfn.  Coefficient  Atom+Function  
  ----- ------------  ---------------      ----- ------------  ---------------
    13      1.203728  1 N  pz                 6     -0.679208  1 N  s          
     9     -0.349882  1 N  pz                21      0.267268  2 H  s          
    23      0.267268  3 H  s                 25      0.267268  4 H  s          
     5     -0.233567  1 N  pz                10      0.150991  1 N  s          

 Vector   10  Occ=0.000000D+00  E= 1.766380D-01  Symmetry=e
              MO Center= -3.7D-02, -1.7D-01, -1.4D-02, r^2= 3.3D+00
   Bfn.  Coefficient  Atom+Function         Bfn.  Coefficient  Atom+Function  
  ----- ------------  ---------------      ----- ------------  ---------------
    23      1.847274  3 H  s                 25     -1.313903  4 H  s          
     8      0.817832  1 N  py                12      0.751462  1 N  py         
    21     -0.533370  2 H  s                  7     -0.447926  1 N  px         
    11     -0.411575  1 N  px                 4      0.298848  1 N  py         
    22      0.197781  3 H  s                  3     -0.163679  1 N  px         

 Vector   11  Occ=0.000000D+00  E= 1.766380D-01  Symmetry=e
              MO Center=  3.7D-02,  1.7D-01, -1.4D-02, r^2= 3.3D+00
   Bfn.  Coefficient  Atom+Function         Bfn.  Coefficient  Atom+Function  
  ----- ------------  ---------------      ----- ------------  ---------------
    21      1.825106  2 H  s                 25     -1.374465  4 H  s          
     7     -0.817832  1 N  px                11     -0.751462  1 N  px         
    23     -0.450641  3 H  s                  8     -0.447926  1 N  py         
    12     -0.411575  1 N  py                 3     -0.298848  1 N  px         
    20      0.195408  2 H  s                  4     -0.163679  1 N  py         

 Vector   12  Occ=0.000000D+00  E= 2.365982D-01  Symmetry=a1
              MO Center= -2.2D-15,  6.1D-16, -4.0D-01, r^2= 4.6D+00
   Bfn.  Coefficient  Atom+Function         Bfn.  Coefficient  Atom+Function  
  ----- ------------  ---------------      ----- ------------  ---------------
    10      2.741132  1 N  s                 21     -1.868549  2 H  s          
    23     -1.868549  3 H  s                 25     -1.868549  4 H  s          
     6      1.845628  1 N  s                  9     -0.701955  1 N  pz         
    13     -0.551904  1 N  pz                 5     -0.208636  1 N  pz         

 Vector   13  Occ=0.000000D+00  E= 8.291694D-01  Symmetry=e
              MO Center=  2.3D-02,  6.2D-02,  1.8D-01, r^2= 2.1D+00
   Bfn.  Coefficient  Atom+Function         Bfn.  Coefficient  Atom+Function  
  ----- ------------  ---------------      ----- ------------  ---------------
     8      1.500780  1 N  py                 7     -0.964938  1 N  px         
     4     -0.835038  1 N  py                 3      0.536894  1 N  px         
    23      0.524731  3 H  s                 25     -0.407736  4 H  s          
    12     -0.402123  1 N  py                11      0.258548  1 N  px         

 Vector   14  Occ=0.000000D+00  E= 8.291694D-01  Symmetry=e
              MO Center= -2.3D-02, -6.2D-02,  1.8D-01, r^2= 2.1D+00
   Bfn.  Coefficient  Atom+Function         Bfn.  Coefficient  Atom+Function  
  ----- ------------  ---------------      ----- ------------  ---------------
     7      1.500780  1 N  px                 8      0.964938  1 N  py         
     3     -0.835038  1 N  px                 4     -0.536894  1 N  py         
    21     -0.538360  2 H  s                 11     -0.402123  1 N  px         
    25      0.370500  4 H  s                 12     -0.258548  1 N  py         
    23      0.167860  3 H  s          

 Vector   15  Occ=0.000000D+00  E= 8.609210D-01  Symmetry=a1
              MO Center=  2.3D-16, -1.7D-15,  2.7D-01, r^2= 2.1D+00
   Bfn.  Coefficient  Atom+Function         Bfn.  Coefficient  Atom+Function  
  ----- ------------  ---------------      ----- ------------  ---------------
     9      1.657988  1 N  pz                 5     -1.018078  1 N  pz         
     6     -0.673030  1 N  s                 10     -0.665095  1 N  s          
    21      0.543640  2 H  s                 23      0.543640  3 H  s          
    25      0.543640  4 H  s                 13     -0.502135  1 N  pz         


 center of mass
 --------------
 x =   0.00000000 y =   0.00000000 z =   0.11744088

 moments of inertia (a.u.)
 ------------------
           6.390868983434          -0.000000000000           0.000000000000
          -0.000000000000           6.390868983434           0.000000000000
           0.000000000000           0.000000000000          10.022565329602

     Multipole analysis of the density
     ---------------------------------

     L   x y z        total         alpha         beta         nuclear
     -   - - -        -----         -----         ----         -------
     0   0 0 0     -0.000000     -5.000000     -5.000000     10.000000

     1   1 0 0      0.000000      0.000000      0.000000      0.000000
     1   0 1 0     -0.000000     -0.000000     -0.000000      0.000000
     1   0 0 1     -0.707450     -0.484981     -0.484981      0.262512

     2   2 0 0     -4.965370     -4.968872     -4.968872      4.972374
     2   1 1 0      0.000000     -0.000000     -0.000000      0.000000
     2   1 0 1     -0.000000     -0.000000     -0.000000     -0.000000
     2   0 2 0     -4.965370     -4.968872     -4.968872      4.972374
     2   0 1 1      0.000000      0.000000      0.000000     -0.000000
     2   0 0 2     -7.727819     -4.449907     -4.449907      1.171996


 Parallel integral file used       1 records with       0 large values

 Line search: 
     step= 1.00 grad=-4.0D-05 hess= 2.2D-05 energy=    -56.167830 mode=downhill
 new step= 0.90                   predicted energy=    -56.167831

          --------
          Step   2
          --------


                         Geometry "geometry" -> "geometry"
                         ---------------------------------

 Output coordinates in angstroms (scale by  1.889725989 to convert to a.u.)

  No.       Tag          Charge          X              Y              Z
 ---- ---------------- ---------- -------------- -------------- --------------
    1 N                    7.0000     0.00000000    -0.00000000     0.13226854
    2 H                    1.0000     0.68100328     0.68100328    -0.26206430
    3 H                    1.0000     0.24926450    -0.93026778    -0.26206430
    4 H                    1.0000    -0.93026778     0.24926450    -0.26206430

      Atomic Mass 
      ----------- 

      N                 14.003070
      H                  1.007825


 Effective nuclear repulsion energy (a.u.)      11.6299511582

            Nuclear Dipole moment (a.u.) 
            ----------------------------
        X                 Y               Z
 ---------------- ---------------- ----------------
     0.0000000000     0.0000000000     0.2639699419

      Symmetry information
      --------------------

 Group name             C3v       
 Group number             17
 Group order               6
 No. of unique centers     2

      Symmetry unique atoms

     1    2


                                 NWChem DFT Module
                                 -----------------


                                 H3N1 dft optimize


  Caching 1-el integrals 
  Rotation of axis 

            General Information
            -------------------
          SCF calculation type: DFT
          Wavefunction type:  closed shell.
          No. of atoms     :     4
          No. of electrons :    10
           Alpha electrons :     5
            Beta electrons :     5
          Charge           :     0
          Spin multiplicity:     1
          Use of symmetry is: on ; symmetry adaption is: on 
          Maximum number of iterations:  30
          AO basis - number of functions:    25
                     number of shells:    14
          Convergence on energy requested: 1.00D-06
          Convergence on density requested: 1.00D-05
          Convergence on gradient requested: 5.00D-04

              XC Information
              --------------
          PerdewBurkeErnzerhof Exchange Functional  1.000          

             Grid Information
             ----------------
          Grid used for XC integration:  medium    
          Radial quadrature: Mura-Knowles        
          Angular quadrature: Lebedev. 
          Tag              B.-S. Rad. Rad. Pts. Rad. Cut. Ang. Pts.
          ---              ---------- --------- --------- ---------
          N                   0.65       49           6.0       434
          H                   0.35       45           7.0       434
          Grid pruning is: on 
          Number of quadrature shells:    94
          Spatial weights used:  Erf1

          Convergence Information
          -----------------------
          Convergence aids based upon iterative change in 
          total energy or number of iterations. 
          Levelshifting, if invoked, occurs when the 
          HOMO/LUMO gap drops below (HL_TOL): 1.00D-02
          DIIS, if invoked, will attempt to extrapolate 
          using up to (NFOCK): 10 stored Fock matrices.

                    Damping( 0%)  Levelshifting(0.5)       DIIS
                  --------------- ------------------- ---------------
          dE  on:    start            ASAP                start   
          dE off:    2 iters         30 iters            30 iters 


      Screening Tolerance Information
      -------------------------------
          Density screening/tol_rho: 1.00D-10
          AO Gaussian exp screening on grid/accAOfunc:  14
          CD Gaussian exp screening on grid/accCDfunc:  20
          XC Gaussian exp screening on grid/accXCfunc:  20
          Schwarz screening/accCoul: 1.00D-08


 Loading old vectors from job with title :

H3N1 dft optimize


      Symmetry analysis of molecular orbitals - initial
      -------------------------------------------------

  Numbering of irreducible representations: 

     1 a1          2 a2          3 e       

  Orbital symmetries:

     1 a1          2 a1          3 e           4 e           5 a1      
     6 a1          7 e           8 e           9 a1         10 e       
    11 e          12 a1         13 e          14 e          15 a1      

   Time after variat. SCF:      2.1
   Time prior to 1st pass:      2.1

 #quartets = 2.175D+03 #integrals = 1.621D+04 #direct =  0.0% #cached =100.0%


 Integral file          = ./NH3.aoints.0
 Record size in doubles =  65536        No. of integs per rec  =  43688
 Max. records in memory =      2        Max. records in file   = 185716
 No. of bits per label  =      8        No. of bits per value  =     64


 Grid_pts file          = ./NH3.gridpts.0
[...]

  8 S  6.39000000E-02  1.000000

  9 P  6.39000000E-02  1.000000

 10 D  9.13000000E-01  1.000000



 Summary of "ao basis" -> "" (cartesian)
 ------------------------------------------------------------------------------
       Tag                 Description            Shells   Functions and Types
 ---------------- ------------------------------  ------  ---------------------
 H                          6-311+G*                 3        3   3s
 N                          6-311+G*                10       23   5s4p1d



                                 NWChem DFT Module
                                 -----------------


                                  H3N1 dft energy


  Caching 1-el integrals 
  Rotation of axis 
  itol2e modified to match energy
  convergence criterion.

            General Information
            -------------------
          SCF calculation type: DFT
          Wavefunction type:  closed shell.
          No. of atoms     :     4
          No. of electrons :    10
           Alpha electrons :     5
            Beta electrons :     5
          Charge           :     0
          Spin multiplicity:     1
          Use of symmetry is: on ; symmetry adaption is: on 
          Maximum number of iterations:  30
          AO basis - number of functions:    32
                     number of shells:    19
          Convergence on energy requested: 1.00D-07
          Convergence on density requested: 1.00D-05
          Convergence on gradient requested: 5.00D-04

              XC Information
              --------------
          PerdewBurkeErnzerhof Exchange Functional  1.000          

             Grid Information
             ----------------
          Grid used for XC integration:  fine      
          Radial quadrature: Mura-Knowles        
          Angular quadrature: Lebedev. 
          Tag              B.-S. Rad. Rad. Pts. Rad. Cut. Ang. Pts.
          ---              ---------- --------- --------- ---------
          N                   0.65       70           7.0       590
          H                   0.35       60           8.0       590
          Grid pruning is: on 
          Number of quadrature shells:   130
          Spatial weights used:  Erf1

          Convergence Information
          -----------------------
          Convergence aids based upon iterative change in 
          total energy or number of iterations. 
          Levelshifting, if invoked, occurs when the 
          HOMO/LUMO gap drops below (HL_TOL): 1.00D-02
          DIIS, if invoked, will attempt to extrapolate 
          using up to (NFOCK): 10 stored Fock matrices.

                    Damping( 0%)  Levelshifting(0.5)       DIIS
                  --------------- ------------------- ---------------
          dE  on:    start            ASAP                start   
          dE off:    2 iters         30 iters            30 iters 


      Screening Tolerance Information
      -------------------------------
          Density screening/tol_rho: 1.00D-11
          AO Gaussian exp screening on grid/accAOfunc:  16
          CD Gaussian exp screening on grid/accCDfunc:  20
          XC Gaussian exp screening on grid/accXCfunc:  20
          Schwarz screening/accCoul: 1.00D-08


 !! nbf/nmo/basis-name mismatch 
           nbf=  32 nbf_file=  15
           nmo=  32nmo_file=  15
           basis="ao basis" basis_file="ao basis"

  Either an incorrect movecs file was specified, or linear dependence has changed,
  or the basis name was changed. 

 Loading old vectors from job with title :

H3N1 dft freq


  Load of old vectors failed.   Forcing atomic density guess


      Superposition of Atomic Density Guess
      -------------------------------------

 Sum of atomic energies:         -55.80739562

      Non-variational initial energy
      ------------------------------

 Total energy =     -56.145128
 1-e energy   =     -97.652850
 2-e energy   =      29.876033
 HOMO         =      -0.374857
 LUMO         =       0.049975


      Symmetry analysis of molecular orbitals - initial
      -------------------------------------------------

  Numbering of irreducible representations: 

     1 a1          2 a2          3 e       

  Orbital symmetries:

     1 a1          2 a1          3 e           4 e           5 a1      
     6 a1          7 e           8 e           9 a1         10 e       
    11 e          12 a1         13 e          14 e          15 a1      

   Time after variat. SCF:     11.3
   Time prior to 1st pass:     11.3

 #quartets = 6.571D+03 #integrals = 4.227D+04 #direct =  0.0% #cached =100.0%


 Integral file          = ./NH3.aoints.0
 Record size in doubles =  65536        No. of integs per rec  =  43688
 Max. records in memory =      2        Max. records in file   = 185707
 No. of bits per label  =      8        No. of bits per value  =     64


 Grid_pts file          = ./NH3.gridpts.0
 Record size in doubles =  12289        No. of grid_pts per rec  =   3070
 Max. records in memory =     29        Max. recs in file   =    990362


           Memory utilization after 1st SCF pass: 
           Heap Space remaining (MW):       32.28            32278594
          Stack Space remaining (MW):       32.77            32767696

   convergence    iter        energy       DeltaE   RMS-Dens  Diis-err    time
 ---------------- ----- ----------------- --------- --------- ---------  ------
 d= 0,ls=0.0,diis     1    -56.1488274574 -6.78D+01  3.11D-02  4.37D-01    11.6
 d= 0,ls=0.0,diis     2    -56.1124820222  3.63D-02  2.39D-02  6.31D-01    11.7
 d= 0,ls=0.0,diis     3    -56.1733500378 -6.09D-02  3.85D-03  1.14D-01    11.8
 d= 0,ls=0.0,diis     4    -56.1847573869 -1.14D-02  1.21D-03  7.23D-04    12.0
 d= 0,ls=0.0,diis     5    -56.1848385327 -8.11D-05  1.21D-04  1.59D-05    12.1
  Resetting Diis
 d= 0,ls=0.0,diis     6    -56.1848405235 -1.99D-06  1.06D-05  3.05D-07    12.3
 d= 0,ls=0.0,diis     7    -56.1848405605 -3.69D-08  1.19D-06  6.49D-10    12.4


         Total DFT energy =      -56.184840560478
      One electron energy =      -98.885618067745
           Coulomb energy =       38.652230365795
    Exchange-Corr. energy =       -7.583142263589
 Nuclear repulsion energy =       11.631689405060

 Numeric. integr. density =        9.999999917446

     Total iterative time =      1.1s



                  Occupations of the irreducible representations
                  ----------------------------------------------

                     irrep           alpha         beta
                     --------     --------     --------
                     a1                3.0          3.0
                     a2                0.0          0.0
                     e                 2.0          2.0


                       DFT Final Molecular Orbital Analysis
                       ------------------------------------

 Vector    1  Occ=2.000000D+00  E=-1.395953D+01  Symmetry=a1
              MO Center=  1.1D-21,  0.0D+00,  1.3D-01, r^2= 2.0D-02
   Bfn.  Coefficient  Atom+Function         Bfn.  Coefficient  Atom+Function  
  ----- ------------  ---------------      ----- ------------  ---------------
     1      0.558528  1 N  s                  2      0.460634  1 N  s          

 Vector    2  Occ=2.000000D+00  E=-7.391475D-01  Symmetry=a1
              MO Center= -5.0D-17, -6.9D-17, -7.9D-02, r^2= 7.0D-01
   Bfn.  Coefficient  Atom+Function         Bfn.  Coefficient  Atom+Function  
  ----- ------------  ---------------      ----- ------------  ---------------
     6      0.487872  1 N  s                 10      0.381251  1 N  s          
     2     -0.173702  1 N  s          

 Vector    3  Occ=2.000000D+00  E=-3.813677D-01  Symmetry=e
              MO Center= -5.0D-02, -2.0D-01, -4.2D-02, r^2= 1.0D+00
   Bfn.  Coefficient  Atom+Function         Bfn.  Coefficient  Atom+Function  
  ----- ------------  ---------------      ----- ------------  ---------------
     8      0.289423  1 N  py                28     -0.198619  3 H  s          
    12      0.192102  1 N  py                 4      0.190690  1 N  py         
    27     -0.173050  3 H  s                  7     -0.164735  1 N  px         

 Vector    4  Occ=2.000000D+00  E=-3.813677D-01  Symmetry=e
              MO Center=  5.0D-02,  2.0D-01, -4.2D-02, r^2= 1.0D+00
   Bfn.  Coefficient  Atom+Function         Bfn.  Coefficient  Atom+Function  
  ----- ------------  ---------------      ----- ------------  ---------------
     7      0.289423  1 N  px                25      0.197966  2 H  s          
    11      0.192102  1 N  px                 3      0.190690  1 N  px         
    24      0.172481  2 H  s                  8      0.164735  1 N  py         

 Vector    5  Occ=2.000000D+00  E=-1.917783D-01  Symmetry=a1
              MO Center= -5.0D-18, -3.8D-19,  2.8D-01, r^2= 1.1D+00
   Bfn.  Coefficient  Atom+Function         Bfn.  Coefficient  Atom+Function  
  ----- ------------  ---------------      ----- ------------  ---------------
    13      0.397811  1 N  pz                 9      0.364087  1 N  pz         
     5      0.255194  1 N  pz                 6      0.205658  1 N  s          
    10      0.200501  1 N  s                 17      0.181490  1 N  pz         

 Vector    6  Occ=0.000000D+00  E= 1.285069D-03  Symmetry=a1
              MO Center= -1.4D-16, -3.3D-16, -7.3D-01, r^2= 4.8D+00
   Bfn.  Coefficient  Atom+Function         Bfn.  Coefficient  Atom+Function  
  ----- ------------  ---------------      ----- ------------  ---------------
    14      2.632095  1 N  s                 10     -0.870581  1 N  s          
    17     -0.679491  1 N  pz                26     -0.614840  2 H  s          
    29     -0.614840  3 H  s                 32     -0.614840  4 H  s          
    13      0.198370  1 N  pz                25      0.193508  2 H  s          
    28      0.193508  3 H  s                 31      0.193508  4 H  s          

 Vector    7  Occ=0.000000D+00  E= 7.904185D-02  Symmetry=e
              MO Center= -5.6D-02, -2.8D-02,  1.8D-01, r^2= 6.5D+00
   Bfn.  Coefficient  Atom+Function         Bfn.  Coefficient  Atom+Function  
  ----- ------------  ---------------      ----- ------------  ---------------
    16      1.088233  1 N  py                15      0.782411  1 N  px         
    12     -0.416069  1 N  py                11     -0.299143  1 N  px         
    26     -0.239174  2 H  s                 29      0.153450  3 H  s          

 Vector    8  Occ=0.000000D+00  E= 7.904185D-02  Symmetry=e
              MO Center=  5.6D-02,  2.8D-02,  1.8D-01, r^2= 6.5D+00
   Bfn.  Coefficient  Atom+Function         Bfn.  Coefficient  Atom+Function  
  ----- ------------  ---------------      ----- ------------  ---------------
    15      1.088233  1 N  px                16     -0.782411  1 N  py         
    11     -0.416069  1 N  px                12      0.299143  1 N  py         
    32      0.226681  4 H  s                 29     -0.187580  3 H  s          

 Vector    9  Occ=0.000000D+00  E= 1.066314D-01  Symmetry=a1
              MO Center= -1.5D-15,  4.4D-15,  4.2D-01, r^2= 6.4D+00
   Bfn.  Coefficient  Atom+Function         Bfn.  Coefficient  Atom+Function  
  ----- ------------  ---------------      ----- ------------  ---------------
    17      1.501043  1 N  pz                14     -1.177247  1 N  s          
    26      0.817769  2 H  s                 29      0.817769  3 H  s          
    32      0.817769  4 H  s                 10     -0.748820  1 N  s          
    13     -0.370779  1 N  pz         

 Vector   10  Occ=0.000000D+00  E= 1.360635D-01  Symmetry=e
              MO Center= -5.3D-02, -6.5D-02,  6.1D-02, r^2= 4.8D+00
   Bfn.  Coefficient  Atom+Function         Bfn.  Coefficient  Atom+Function  
  ----- ------------  ---------------      ----- ------------  ---------------
    29      2.540518  3 H  s                 32     -2.395188  4 H  s          
    16      1.269135  1 N  py                15     -1.145966  1 N  px         
    12      0.495537  1 N  py                11     -0.447445  1 N  px         
    28      0.152698  3 H  s          

 Vector   11  Occ=0.000000D+00  E= 1.360635D-01  Symmetry=e
              MO Center=  5.3D-02,  6.5D-02,  6.1D-02, r^2= 4.8D+00
   Bfn.  Coefficient  Atom+Function         Bfn.  Coefficient  Atom+Function  
  ----- ------------  ---------------      ----- ------------  ---------------
    26      2.849631  2 H  s                 32     -1.550675  4 H  s          
    29     -1.298956  3 H  s                 15     -1.269135  1 N  px         
    16     -1.145966  1 N  py                11     -0.495537  1 N  px         
    12     -0.447445  1 N  py                25      0.171277  2 H  s          

 Vector   12  Occ=0.000000D+00  E= 1.851727D-01  Symmetry=a1
              MO Center=  3.5D-14, -3.2D-14, -2.3D-01, r^2= 6.1D+00
   Bfn.  Coefficient  Atom+Function         Bfn.  Coefficient  Atom+Function  
  ----- ------------  ---------------      ----- ------------  ---------------
    14      6.640577  1 N  s                 26     -3.047832  2 H  s          
    29     -3.047832  3 H  s                 32     -3.047832  4 H  s          
    10      1.377629  1 N  s                 17     -1.188959  1 N  pz         
    13     -0.579547  1 N  pz         

 Vector   13  Occ=0.000000D+00  E= 4.657704D-01  Symmetry=e
              MO Center= -1.9D-01, -1.7D-02, -2.5D-02, r^2= 4.1D+00
   Bfn.  Coefficient  Atom+Function         Bfn.  Coefficient  Atom+Function  
  ----- ------------  ---------------      ----- ------------  ---------------
    32      3.289382  4 H  s                 29     -2.153593  3 H  s          
    31     -1.656111  4 H  s                 15      1.606458  1 N  px         
    26     -1.135789  2 H  s                 28      1.084273  3 H  s          
    16     -0.753502  1 N  py                11     -0.746713  1 N  px         
    25      0.571838  2 H  s                 12      0.350242  1 N  py         

 Vector   14  Occ=0.000000D+00  E= 4.657704D-01  Symmetry=e
              MO Center=  1.9D-01,  1.7D-02, -2.5D-02, r^2= 4.1D+00
   Bfn.  Coefficient  Atom+Function         Bfn.  Coefficient  Atom+Function  
  ----- ------------  ---------------      ----- ------------  ---------------
    26      3.142503  2 H  s                 29     -2.554874  3 H  s          
    16     -1.606458  1 N  py                25     -1.582162  2 H  s          
    28      1.286307  3 H  s                 15     -0.753502  1 N  px         
    12      0.746713  1 N  py                32     -0.587629  4 H  s          
    11      0.350242  1 N  px                31      0.295855  4 H  s          

 Vector   15  Occ=0.000000D+00  E= 5.943182D-01  Symmetry=a1
              MO Center=  6.5D-15,  1.1D-14, -5.9D-01, r^2= 3.5D+00
   Bfn.  Coefficient  Atom+Function         Bfn.  Coefficient  Atom+Function  
  ----- ------------  ---------------      ----- ------------  ---------------
    14      5.393415  1 N  s                 26     -2.990140  2 H  s          
    29     -2.990140  3 H  s                 32     -2.990140  4 H  s          
    25      1.558447  2 H  s                 28      1.558447  3 H  s          
    31      1.558447  4 H  s                 17     -1.332143  1 N  pz         
    13      0.708755  1 N  pz                10     -0.670571  1 N  s          


 center of mass
 --------------
 x =   0.00000000 y =   0.00000000 z =   0.11644327

 moments of inertia (a.u.)
 ------------------
           6.382913202241           0.000000000000           0.000000000000
           0.000000000000           6.382913202241           0.000000000000
           0.000000000000           0.000000000000          10.019550220846

     Multipole analysis of the density
     ---------------------------------

     L   x y z        total         alpha         beta         nuclear
     -   - - -        -----         -----         ----         -------
     0   0 0 0     -0.000000     -5.000000     -5.000000     10.000000

     1   1 0 0     -0.000000     -0.000000     -0.000000      0.000000
     1   0 1 0     -0.000000     -0.000000     -0.000000     -0.000000
     1   0 0 1     -0.699809     -0.477239     -0.477239      0.254669

     2   2 0 0     -4.950148     -4.960513     -4.960513      4.970878
     2   1 1 0     -0.000000     -0.000000     -0.000000     -0.000000
     2   1 0 1      0.000000      0.000000      0.000000      0.000000
     2   0 2 0     -4.950148     -4.960513     -4.960513      4.970878
     2   0 1 1      0.000000      0.000000      0.000000      0.000000
     2   0 0 2     -7.725068     -4.445607     -4.445607      1.166145


 Parallel integral file used       1 records with       0 large values


 Task  times  cpu:        1.2s     wall:        1.3s
 Summary of allocated global arrays
-----------------------------------
  No active global arrays



                         GA Statistics for process    0
                         ------------------------------

       create   destroy   get      put      acc     scatter   gather  read&inc
calls: 2005     2005     1.76e+05 1.76e+04 1.25e+05  314        0     4178     
number of processes/call 1.00e+00 1.00e+00 1.00e+00 1.00e+00 0.00e+00
bytes total:             4.45e+07 7.56e+06 2.48e+07 4.98e+05 0.00e+00 3.34e+04
bytes remote:            0.00e+00 0.00e+00 0.00e+00 0.00e+00 0.00e+00 0.00e+00
Max memory consumed for GA by this process: 319488 bytes
MA_summarize_allocated_blocks: starting scan ...
MA_summarize_allocated_blocks: scan completed: 0 heap blocks, 0 stack blocks
MA usage statistics:

	allocation statistics:
					      heap	     stack
					      ----	     -----
	current number of blocks	         0	         0
	maximum number of blocks	        26	        52
	current total bytes		         0	         0
	maximum total bytes		   6368256	  64298392
	maximum total K-bytes		      6369	     64299
	maximum total M-bytes		         7	        65


                                NWChem Input Module
                                -------------------





                                     CITATION
                                     --------
                Please cite the following reference when publishing
                           results obtained with NWChem:

                 M. Valiev, E.J. Bylaska, N. Govind, K. Kowalski,
              T.P. Straatsma, H.J.J. van Dam, D. Wang, J. Nieplocha,
                        E. Apra, T.L. Windus, W.A. de Jong
                 "NWChem: a comprehensive and scalable open-source
                  solution for large scale molecular simulations"
                      Comput. Phys. Commun. 181, 1477 (2010)
                           doi:10.1016/j.cpc.2010.04.018

                              AUTHORS & CONTRIBUTORS
                              ----------------------
          E. Apra, E. J. Bylaska, W. A. de Jong, N. Govind, K. Kowalski,
       T. P. Straatsma, M. Valiev, H. J. J. van Dam, D. Wang, T. L. Windus,
        J. Hammond, J. Autschbach, K. Bhaskaran-Nair, J. Brabec, K. Lopata,
     F. Aquino, S. Hirata, M. T. Hackler, J. Mullin, P. Nichols, R. Peverati,
    J. Pittner, Y. Zhao, P.-D. Fan, R. J. Harrison, M. Dupuis, D. Silverstein,
    D. M. A. Smith, J. Nieplocha, V. Tipparaju, M. Krishnan, B. E. Van Kuiken,
        A. Vazquez-Mayagoitia, L. Jensen, M. Swart, Q. Wu, T. Van Voorhis,
     A. A. Auer, M. Nooijen, L. D. Crosby, E. Brown, G. Cisneros, G. I. Fann,
     H. Fruchtl, J. Garza, K. Hirao, R. Kendall, J. A. Nichols, K. Tsemekhman,
      K. Wolinski, J. Anchell, D. Bernholdt, P. Borowski, T. Clark, D. Clerc,
      H. Dachsel, M. Deegan, K. Dyall, D. Elwood, E. Glendening, M. Gutowski,
      A. Hess, J. Jaffe, B. Johnson, J. Ju, R. Kobayashi, R. Kutteh, Z. Lin,
   R. Littlefield, X. Long, B. Meng, T. Nakajima, S. Niu, L. Pollack, M. Rosing,
   K. Glaesemann, G. Sandrone, M. Stave, H. Taylor, G. Thomas, J. H. van Lenthe,
                                A. Wong, Z. Zhang.

 Total times  cpu:       12.4s     wall:       13.2s
