
     Program PWSCF v.5.1.2 starts on 11May2015 at 18:31:56 

     This program is part of the open-source Quantum ESPRESSO suite
     for quantum simulation of materials; please cite
         "P. Giannozzi et al., J. Phys.:Condens. Matter 21 395502 (2009);
          URL http://www.quantum-espresso.org", 
     in publications or presentations arising from this work. More details at
     http://www.quantum-espresso.org/quote

     Serial version
     Reading input from Fe_HCP_5.46_172_6_3.pw.in

     Current dimensions of program PWSCF are:
     Max number of different atomic species (ntypx) = 10
     Max number of k-points (npk) =  40000
     Max angular momentum in pseudopotentials (lmaxx) =  3
               file Fe.pbe-spn-kjpaw_psl.0.2.1.UPF: wavefunction(s)  3D renormalized

     G-vector sticks info
     --------------------
     sticks:   dense  smooth     PW     G-vecs:    dense   smooth      PW
     Sum         511     421    121                16241    11647    2003

     Generating pointlists ...
     new r_m :   0.4125 (alat units)  2.2523 (a.u.) for type    1


     bravais-lattice index     =            4
     lattice parameter (alat)  =       5.4600  a.u.
     unit-cell volume          =     242.4583 (a.u.)^3
     number of atoms/cell      =            2
     number of atomic types    =            1
     number of electrons       =        32.00
     number of Kohn-Sham states=           20
     kinetic-energy cutoff     =      50.0000  Ry
     charge density cutoff     =     250.0000  Ry
     convergence threshold     =      1.0E-08
     mixing beta               =       0.7000
     number of iterations used =            8  plain     mixing
     Exchange-correlation      =  SLA  PW   PBX  PBC ( 1  4  3  4 0 0)

     celldm(1)=   5.460000  celldm(2)=   0.000000  celldm(3)=   1.720000
     celldm(4)=   0.000000  celldm(5)=   0.000000  celldm(6)=   0.000000

     crystal axes: (cart. coord. in units of alat)
               a(1) = (   1.000000   0.000000   0.000000 )  
               a(2) = (  -0.500000   0.866025   0.000000 )  
               a(3) = (   0.000000   0.000000   1.720000 )  

     reciprocal axes: (cart. coord. in units 2 pi/alat)
               b(1) = (  1.000000  0.577350 -0.000000 )  
               b(2) = (  0.000000  1.154701  0.000000 )  
               b(3) = (  0.000000 -0.000000  0.581395 )  


     PseudoPot. # 1 for Fe read from file:
     ./Fe.pbe-spn-kjpaw_psl.0.2.1.UPF
     MD5 check sum: a0a08122d52b112de96d1da1d7dd020f
     Pseudo is Projector augmented-wave + core cor, Zval = 16.0
     Generated using "atomic" code by A. Dal Corso  v.5.0.2 svn rev. 9415
     Shape of augmentation charge: PSQ
     Using radial grid of 1191 points,  6 beta functions with: 
                l(1) =   0
                l(2) =   0
                l(3) =   1
                l(4) =   1
                l(5) =   2
                l(6) =   2
     Q(r) pseudized with 0 coefficients 


     atomic species   valence    mass     pseudopotential
        Fe            16.00    55.85000     Fe( 1.00)

     Starting magnetic structure 
     atomic species   magnetization
        Fe           0.700

     24 Sym. Ops., with inversion, found (12 have fractional translation)



   Cartesian axes

     site n.     atom                  positions (alat units)
         1           Fe  tau(   1) = (  -0.0000000   0.5773503   0.4300000  )
         2           Fe  tau(   2) = (   0.5000000   0.2886751   1.2900000  )

     number of k points=    28  Marzari-Vanderbilt smearing, width (Ry)=  0.0250
                       cart. coord. in units 2pi/alat
        k(    1) = (   0.0000000   0.0000000   0.0000000), wk =   0.0092593
        k(    2) = (   0.0000000   0.0000000   0.1937984), wk =   0.0185185
        k(    3) = (   0.0000000   0.1924501   0.0000000), wk =   0.0555556
        k(    4) = (   0.0000000   0.1924501   0.1937984), wk =   0.1111111
        k(    5) = (   0.0000000   0.3849002   0.0000000), wk =   0.0555556
        k(    6) = (   0.0000000   0.3849002   0.1937984), wk =   0.1111111
        k(    7) = (   0.0000000  -0.5773503   0.0000000), wk =   0.0277778
        k(    8) = (   0.0000000  -0.5773503   0.1937984), wk =   0.0555556
        k(    9) = (   0.1666667   0.2886751   0.0000000), wk =   0.0555556
        k(   10) = (   0.1666667   0.2886751   0.1937984), wk =   0.1111111
        k(   11) = (   0.1666667   0.4811252   0.0000000), wk =   0.1111111
        k(   12) = (   0.1666667   0.4811252   0.1937984), wk =   0.2222222
        k(   13) = (   0.3333333   0.5773503   0.0000000), wk =   0.0185185
        k(   14) = (   0.3333333   0.5773503   0.1937984), wk =   0.0370370
        k(   15) = (   0.0000000   0.0000000   0.0000000), wk =   0.0092593
        k(   16) = (   0.0000000   0.0000000   0.1937984), wk =   0.0185185
        k(   17) = (   0.0000000   0.1924501   0.0000000), wk =   0.0555556
        k(   18) = (   0.0000000   0.1924501   0.1937984), wk =   0.1111111
        k(   19) = (   0.0000000   0.3849002   0.0000000), wk =   0.0555556
        k(   20) = (   0.0000000   0.3849002   0.1937984), wk =   0.1111111
        k(   21) = (   0.0000000  -0.5773503   0.0000000), wk =   0.0277778
        k(   22) = (   0.0000000  -0.5773503   0.1937984), wk =   0.0555556
        k(   23) = (   0.1666667   0.2886751   0.0000000), wk =   0.0555556
        k(   24) = (   0.1666667   0.2886751   0.1937984), wk =   0.1111111
        k(   25) = (   0.1666667   0.4811252   0.0000000), wk =   0.1111111
        k(   26) = (   0.1666667   0.4811252   0.1937984), wk =   0.2222222
        k(   27) = (   0.3333333   0.5773503   0.0000000), wk =   0.0185185
        k(   28) = (   0.3333333   0.5773503   0.1937984), wk =   0.0370370

     Dense  grid:    16241 G-vectors     FFT dimensions: (  27,  27,  48)

     Smooth grid:    11647 G-vectors     FFT dimensions: (  25,  25,  45)

     Largest allocated arrays     est. size (Mb)     dimensions
        Kohn-Sham Wavefunctions         0.45 Mb     (    1464,   20)
        NL pseudopotentials             0.80 Mb     (    1464,   36)
        Each V/rho on FFT grid          1.07 Mb     (   34992,   2)
        Each G-vector array             0.12 Mb     (   16241)
        G-vector shells                 0.01 Mb     (     845)
     Largest temporary arrays     est. size (Mb)     dimensions
        Auxiliary wavefunctions         1.79 Mb     (    1464,   80)
        Each subspace H/S matrix        0.10 Mb     (      80,   80)
        Each <psi_i|beta_j> matrix      0.01 Mb     (      36,   20)
        Arrays for rho mixing           4.27 Mb     (   34992,    8)

     Check: negative/imaginary core charge=   -0.000315    0.000000

     Initial potential from superposition of free atoms

     starting charge   31.99912, renormalised to   32.00000
     Starting wfc are   26 randomized atomic wfcs

     total cpu time spent up to now is        3.2 secs

     Self-consistent Calculation

     iteration #  1     ecut=    50.00 Ry     beta=0.70
     Davidson diagonalization with overlap
     ethr =  1.00E-02,  avg # of iterations =  2.0

     negative rho (up, down):  0.000E+00 1.109E-03

     Magnetic moment per site:
     atom:    1    charge:   14.6276    magn:    5.9550    constr:    0.0000
     atom:    2    charge:   14.6276    magn:    5.9550    constr:    0.0000

     total cpu time spent up to now is        7.0 secs

     total energy              =    -657.95399131 Ry
     Harris-Foulkes estimate   =    -656.24206405 Ry
     estimated scf accuracy    <       2.83389041 Ry

     total magnetization       =     8.00 Bohr mag/cell
     absolute magnetization    =     8.30 Bohr mag/cell

     iteration #  2     ecut=    50.00 Ry     beta=0.70
     Davidson diagonalization with overlap
     ethr =  8.86E-03,  avg # of iterations =  1.7

     negative rho (up, down):  0.000E+00 1.084E-03

     Magnetic moment per site:
     atom:    1    charge:   14.8509    magn:    4.0506    constr:    0.0000
     atom:    2    charge:   14.8509    magn:    4.0506    constr:    0.0000

     total cpu time spent up to now is       10.4 secs

     total energy              =    -658.12777147 Ry
     Harris-Foulkes estimate   =    -658.17842122 Ry
     estimated scf accuracy    <       0.84889235 Ry

     total magnetization       =     6.58 Bohr mag/cell
     absolute magnetization    =     6.88 Bohr mag/cell

     iteration #  3     ecut=    50.00 Ry     beta=0.70
     Davidson diagonalization with overlap
     ethr =  2.65E-03,  avg # of iterations =  3.2

     negative rho (up, down):  0.000E+00 1.287E-03

     Magnetic moment per site:
     atom:    1    charge:   14.7365    magn:    3.1004    constr:    0.0000
     atom:    2    charge:   14.7365    magn:    3.1004    constr:    0.0000

     total cpu time spent up to now is       14.4 secs

     total energy              =    -658.16536498 Ry
     Harris-Foulkes estimate   =    -658.64799864 Ry
     estimated scf accuracy    <       1.33913707 Ry

     total magnetization       =     6.87 Bohr mag/cell
     absolute magnetization    =     7.12 Bohr mag/cell

     iteration #  4     ecut=    50.00 Ry     beta=0.70
     Davidson diagonalization with overlap
     ethr =  2.65E-03,  avg # of iterations =  2.7

     negative rho (up, down):  0.000E+00 1.055E-03

     Magnetic moment per site:
     atom:    1    charge:   14.7956    magn:    2.9958    constr:    0.0000
     atom:    2    charge:   14.7956    magn:    2.9958    constr:    0.0000

     total cpu time spent up to now is       18.6 secs

     total energy              =    -658.39136546 Ry
     Harris-Foulkes estimate   =    -658.39133268 Ry
     estimated scf accuracy    <       0.00663555 Ry

     total magnetization       =     5.88 Bohr mag/cell
     absolute magnetization    =     6.29 Bohr mag/cell

     iteration #  5     ecut=    50.00 Ry     beta=0.70
     Davidson diagonalization with overlap
     ethr =  2.07E-05,  avg # of iterations =  3.5

     negative rho (up, down):  0.000E+00 1.057E-03

     Magnetic moment per site:
     atom:    1    charge:   14.7857    magn:    2.9995    constr:    0.0000
     atom:    2    charge:   14.7857    magn:    2.9995    constr:    0.0000

     total cpu time spent up to now is       23.4 secs

     total energy              =    -658.39864950 Ry
     Harris-Foulkes estimate   =    -658.39759560 Ry
     estimated scf accuracy    <       0.00078471 Ry

     total magnetization       =     5.80 Bohr mag/cell
     absolute magnetization    =     6.22 Bohr mag/cell

     iteration #  6     ecut=    50.00 Ry     beta=0.70
     Davidson diagonalization with overlap
     ethr =  2.45E-06,  avg # of iterations =  2.2

     negative rho (up, down):  0.000E+00 1.059E-03

     Magnetic moment per site:
     atom:    1    charge:   14.7857    magn:    3.0000    constr:    0.0000
     atom:    2    charge:   14.7857    magn:    3.0000    constr:    0.0000

     total cpu time spent up to now is       26.9 secs

     total energy              =    -658.39881822 Ry
     Harris-Foulkes estimate   =    -658.39891148 Ry
     estimated scf accuracy    <       0.00064115 Ry

     total magnetization       =     5.78 Bohr mag/cell
     absolute magnetization    =     6.20 Bohr mag/cell

     iteration #  7     ecut=    50.00 Ry     beta=0.70
     Davidson diagonalization with overlap
     ethr =  2.00E-06,  avg # of iterations =  1.3

     negative rho (up, down):  0.000E+00 1.004E-03

     Magnetic moment per site:
     atom:    1    charge:   14.7834    magn:    2.9786    constr:    0.0000
     atom:    2    charge:   14.7834    magn:    2.9786    constr:    0.0000

     total cpu time spent up to now is       30.2 secs

     total energy              =    -658.39979100 Ry
     Harris-Foulkes estimate   =    -658.39886490 Ry
     estimated scf accuracy    <       0.00097551 Ry

     total magnetization       =     5.78 Bohr mag/cell
     absolute magnetization    =     6.19 Bohr mag/cell

     iteration #  8     ecut=    50.00 Ry     beta=0.70
     Davidson diagonalization with overlap
     ethr =  2.00E-06,  avg # of iterations =  2.5

     negative rho (up, down):  0.000E+00 1.020E-03

     Magnetic moment per site:
     atom:    1    charge:   14.7861    magn:    2.9828    constr:    0.0000
     atom:    2    charge:   14.7861    magn:    2.9828    constr:    0.0000

     total cpu time spent up to now is       33.8 secs

     total energy              =    -658.39956937 Ry
     Harris-Foulkes estimate   =    -658.40013077 Ry
     estimated scf accuracy    <       0.00037959 Ry

     total magnetization       =     5.73 Bohr mag/cell
     absolute magnetization    =     6.14 Bohr mag/cell

     iteration #  9     ecut=    50.00 Ry     beta=0.70
     Davidson diagonalization with overlap
     ethr =  1.19E-06,  avg # of iterations =  1.6

     negative rho (up, down):  0.000E+00 1.017E-03

     Magnetic moment per site:
     atom:    1    charge:   14.7861    magn:    2.9783    constr:    0.0000
     atom:    2    charge:   14.7861    magn:    2.9783    constr:    0.0000

     total cpu time spent up to now is       37.1 secs

     total energy              =    -658.39964352 Ry
     Harris-Foulkes estimate   =    -658.39958977 Ry
     estimated scf accuracy    <       0.00081420 Ry

     total magnetization       =     5.74 Bohr mag/cell
     absolute magnetization    =     6.15 Bohr mag/cell

     iteration # 10     ecut=    50.00 Ry     beta=0.70
     Davidson diagonalization with overlap
     ethr =  1.19E-06,  avg # of iterations =  1.1

     negative rho (up, down):  0.000E+00 1.015E-03

     Magnetic moment per site:
     atom:    1    charge:   14.7862    magn:    2.9765    constr:    0.0000
     atom:    2    charge:   14.7862    magn:    2.9765    constr:    0.0000

     total cpu time spent up to now is       40.3 secs

     total energy              =    -658.39965589 Ry
     Harris-Foulkes estimate   =    -658.39965244 Ry
     estimated scf accuracy    <       0.00081107 Ry

     total magnetization       =     5.73 Bohr mag/cell
     absolute magnetization    =     6.14 Bohr mag/cell

     iteration # 11     ecut=    50.00 Ry     beta=0.70
     Davidson diagonalization with overlap
     ethr =  1.19E-06,  avg # of iterations =  1.0

     negative rho (up, down):  0.000E+00 1.014E-03

     Magnetic moment per site:
     atom:    1    charge:   14.7864    magn:    2.9751    constr:    0.0000
     atom:    2    charge:   14.7864    magn:    2.9751    constr:    0.0000

     total cpu time spent up to now is       43.6 secs

     total energy              =    -658.39966824 Ry
     Harris-Foulkes estimate   =    -658.39965911 Ry
     estimated scf accuracy    <       0.00076049 Ry

     total magnetization       =     5.73 Bohr mag/cell
     absolute magnetization    =     6.14 Bohr mag/cell

     iteration # 12     ecut=    50.00 Ry     beta=0.70
     Davidson diagonalization with overlap
     ethr =  1.19E-06,  avg # of iterations =  1.0

     negative rho (up, down):  0.000E+00 1.013E-03

     Magnetic moment per site:
     atom:    1    charge:   14.7864    magn:    2.9745    constr:    0.0000
     atom:    2    charge:   14.7864    magn:    2.9745    constr:    0.0000

     total cpu time spent up to now is       46.8 secs

     total energy              =    -658.39965561 Ry
     Harris-Foulkes estimate   =    -658.39966972 Ry
     estimated scf accuracy    <       0.00072758 Ry

     total magnetization       =     5.73 Bohr mag/cell
     absolute magnetization    =     6.13 Bohr mag/cell

     iteration # 13     ecut=    50.00 Ry     beta=0.70
     Davidson diagonalization with overlap
     ethr =  1.19E-06,  avg # of iterations =  1.0

     negative rho (up, down):  0.000E+00 1.012E-03

     Magnetic moment per site:
     atom:    1    charge:   14.7865    magn:    2.9737    constr:    0.0000
     atom:    2    charge:   14.7865    magn:    2.9737    constr:    0.0000

     total cpu time spent up to now is       49.9 secs

     total energy              =    -658.39967220 Ry
     Harris-Foulkes estimate   =    -658.39965614 Ry
     estimated scf accuracy    <       0.00072555 Ry

     total magnetization       =     5.73 Bohr mag/cell
     absolute magnetization    =     6.13 Bohr mag/cell

     iteration # 14     ecut=    50.00 Ry     beta=0.70
     Davidson diagonalization with overlap
     ethr =  1.19E-06,  avg # of iterations =  1.0

     negative rho (up, down):  0.000E+00 1.013E-03

     Magnetic moment per site:
     atom:    1    charge:   14.7865    magn:    2.9740    constr:    0.0000
     atom:    2    charge:   14.7865    magn:    2.9740    constr:    0.0000

     total cpu time spent up to now is       53.3 secs

     total energy              =    -658.39964352 Ry
     Harris-Foulkes estimate   =    -658.39967260 Ry
     estimated scf accuracy    <       0.00070792 Ry

     total magnetization       =     5.73 Bohr mag/cell
     absolute magnetization    =     6.13 Bohr mag/cell

     iteration # 15     ecut=    50.00 Ry     beta=0.70
     Davidson diagonalization with overlap
     ethr =  1.19E-06,  avg # of iterations =  1.0

     negative rho (up, down):  0.000E+00 9.342E-04

     Magnetic moment per site:
     atom:    1    charge:   14.7958    magn:    2.8737    constr:    0.0000
     atom:    2    charge:   14.7958    magn:    2.8737    constr:    0.0000

     total cpu time spent up to now is       56.7 secs

     total energy              =    -658.39664472 Ry
     Harris-Foulkes estimate   =    -658.39964365 Ry
     estimated scf accuracy    <       0.00072427 Ry

     total magnetization       =     5.73 Bohr mag/cell
     absolute magnetization    =     6.13 Bohr mag/cell

     iteration # 16     ecut=    50.00 Ry     beta=0.70
     Davidson diagonalization with overlap
     ethr =  1.19E-06,  avg # of iterations =  3.8

     negative rho (up, down):  0.000E+00 9.498E-04

     Magnetic moment per site:
     atom:    1    charge:   14.7938    magn:    2.8931    constr:    0.0000
     atom:    2    charge:   14.7938    magn:    2.8931    constr:    0.0000

     total cpu time spent up to now is       61.2 secs

     total energy              =    -658.40008790 Ry
     Harris-Foulkes estimate   =    -658.39799837 Ry
     estimated scf accuracy    <       0.00106336 Ry

     total magnetization       =     5.62 Bohr mag/cell
     absolute magnetization    =     6.00 Bohr mag/cell

     iteration # 17     ecut=    50.00 Ry     beta=0.70
     Davidson diagonalization with overlap
     ethr =  1.19E-06,  avg # of iterations =  1.5

     negative rho (up, down):  0.000E+00 9.426E-04

     Magnetic moment per site:
     atom:    1    charge:   14.7945    magn:    2.8839    constr:    0.0000
     atom:    2    charge:   14.7945    magn:    2.8839    constr:    0.0000

     total cpu time spent up to now is       64.7 secs

     total energy              =    -658.39997174 Ry
     Harris-Foulkes estimate   =    -658.40011665 Ry
     estimated scf accuracy    <       0.00029896 Ry

     total magnetization       =     5.63 Bohr mag/cell
     absolute magnetization    =     6.02 Bohr mag/cell

     iteration # 18     ecut=    50.00 Ry     beta=0.70
     Davidson diagonalization with overlap
     ethr =  9.34E-07,  avg # of iterations =  1.2

     negative rho (up, down):  0.000E+00 9.328E-04

     Magnetic moment per site:
     atom:    1    charge:   14.7953    magn:    2.8724    constr:    0.0000
     atom:    2    charge:   14.7953    magn:    2.8724    constr:    0.0000

     total cpu time spent up to now is       68.0 secs

     total energy              =    -658.39970302 Ry
     Harris-Foulkes estimate   =    -658.39998758 Ry
     estimated scf accuracy    <       0.00043560 Ry

     total magnetization       =     5.62 Bohr mag/cell
     absolute magnetization    =     6.01 Bohr mag/cell

     iteration # 19     ecut=    50.00 Ry     beta=0.70
     Davidson diagonalization with overlap
     ethr =  9.34E-07,  avg # of iterations =  1.3

     negative rho (up, down):  0.000E+00 9.455E-04

     Magnetic moment per site:
     atom:    1    charge:   14.7929    magn:    2.8911    constr:    0.0000
     atom:    2    charge:   14.7929    magn:    2.8911    constr:    0.0000

     total cpu time spent up to now is       71.3 secs

     total energy              =    -658.40042175 Ry
     Harris-Foulkes estimate   =    -658.39972035 Ry
     estimated scf accuracy    <       0.00067658 Ry

     total magnetization       =     5.61 Bohr mag/cell
     absolute magnetization    =     5.99 Bohr mag/cell

     iteration # 20     ecut=    50.00 Ry     beta=0.70
     Davidson diagonalization with overlap
     ethr =  9.34E-07,  avg # of iterations =  1.7

     negative rho (up, down):  0.000E+00 9.467E-04

     Magnetic moment per site:
     atom:    1    charge:   14.7928    magn:    2.8927    constr:    0.0000
     atom:    2    charge:   14.7928    magn:    2.8927    constr:    0.0000

     total cpu time spent up to now is       74.5 secs

     total energy              =    -658.40047126 Ry
     Harris-Foulkes estimate   =    -658.40046959 Ry
     estimated scf accuracy    <       0.00015123 Ry

     total magnetization       =     5.63 Bohr mag/cell
     absolute magnetization    =     6.01 Bohr mag/cell

     iteration # 21     ecut=    50.00 Ry     beta=0.70
     Davidson diagonalization with overlap
     ethr =  4.73E-07,  avg # of iterations =  1.0

     negative rho (up, down):  0.000E+00 9.557E-04

     Magnetic moment per site:
     atom:    1    charge:   14.7919    magn:    2.9039    constr:    0.0000
     atom:    2    charge:   14.7919    magn:    2.9039    constr:    0.0000

     total cpu time spent up to now is       77.6 secs

     total energy              =    -658.40058323 Ry
     Harris-Foulkes estimate   =    -658.40047227 Ry
     estimated scf accuracy    <       0.00014639 Ry

     total magnetization       =     5.63 Bohr mag/cell
     absolute magnetization    =     6.02 Bohr mag/cell

     iteration # 22     ecut=    50.00 Ry     beta=0.70
     Davidson diagonalization with overlap
     ethr =  4.57E-07,  avg # of iterations =  1.7

     negative rho (up, down):  0.000E+00 9.624E-04

     Magnetic moment per site:
     atom:    1    charge:   14.7915    magn:    2.9121    constr:    0.0000
     atom:    2    charge:   14.7915    magn:    2.9121    constr:    0.0000

     total cpu time spent up to now is       80.8 secs

     total energy              =    -658.40061974 Ry
     Harris-Foulkes estimate   =    -658.40059955 Ry
     estimated scf accuracy    <       0.00003409 Ry

     total magnetization       =     5.64 Bohr mag/cell
     absolute magnetization    =     6.03 Bohr mag/cell

     iteration # 23     ecut=    50.00 Ry     beta=0.70
     Davidson diagonalization with overlap
     ethr =  1.07E-07,  avg # of iterations =  2.5

     negative rho (up, down):  0.000E+00 9.669E-04

     Magnetic moment per site:
     atom:    1    charge:   14.7911    magn:    2.9175    constr:    0.0000
     atom:    2    charge:   14.7911    magn:    2.9175    constr:    0.0000

     total cpu time spent up to now is       84.1 secs

     total energy              =    -658.40062969 Ry
     Harris-Foulkes estimate   =    -658.40062859 Ry
     estimated scf accuracy    <       0.00000714 Ry

     total magnetization       =     5.65 Bohr mag/cell
     absolute magnetization    =     6.04 Bohr mag/cell

     iteration # 24     ecut=    50.00 Ry     beta=0.70
     Davidson diagonalization with overlap
     ethr =  2.23E-08,  avg # of iterations =  3.0

     negative rho (up, down):  0.000E+00 9.666E-04

     Magnetic moment per site:
     atom:    1    charge:   14.7911    magn:    2.9174    constr:    0.0000
     atom:    2    charge:   14.7911    magn:    2.9174    constr:    0.0000

     total cpu time spent up to now is       87.7 secs

     total energy              =    -658.40063796 Ry
     Harris-Foulkes estimate   =    -658.40063428 Ry
     estimated scf accuracy    <       0.00000042 Ry

     total magnetization       =     5.66 Bohr mag/cell
     absolute magnetization    =     6.05 Bohr mag/cell

     iteration # 25     ecut=    50.00 Ry     beta=0.70
     Davidson diagonalization with overlap
     ethr =  1.32E-09,  avg # of iterations =  3.2

     negative rho (up, down):  0.000E+00 9.690E-04

     Magnetic moment per site:
     atom:    1    charge:   14.7909    magn:    2.9201    constr:    0.0000
     atom:    2    charge:   14.7909    magn:    2.9201    constr:    0.0000

     total cpu time spent up to now is       91.3 secs

     total energy              =    -658.40063705 Ry
     Harris-Foulkes estimate   =    -658.40063820 Ry
     estimated scf accuracy    <       0.00000090 Ry

     total magnetization       =     5.66 Bohr mag/cell
     absolute magnetization    =     6.05 Bohr mag/cell

     iteration # 26     ecut=    50.00 Ry     beta=0.70
     Davidson diagonalization with overlap
     ethr =  1.32E-09,  avg # of iterations =  3.5

     negative rho (up, down):  0.000E+00 9.683E-04

     Magnetic moment per site:
     atom:    1    charge:   14.7909    magn:    2.9194    constr:    0.0000
     atom:    2    charge:   14.7909    magn:    2.9194    constr:    0.0000

     total cpu time spent up to now is       95.3 secs

     total energy              =    -658.40063947 Ry
     Harris-Foulkes estimate   =    -658.40063810 Ry
     estimated scf accuracy    <       0.00000006 Ry

     total magnetization       =     5.66 Bohr mag/cell
     absolute magnetization    =     6.05 Bohr mag/cell

     iteration # 27     ecut=    50.00 Ry     beta=0.70
     Davidson diagonalization with overlap
     ethr =  1.78E-10,  avg # of iterations =  3.0

     negative rho (up, down):  0.000E+00 9.685E-04

     Magnetic moment per site:
     atom:    1    charge:   14.7909    magn:    2.9197    constr:    0.0000
     atom:    2    charge:   14.7909    magn:    2.9197    constr:    0.0000

     total cpu time spent up to now is       99.1 secs

     total energy              =    -658.40063957 Ry
     Harris-Foulkes estimate   =    -658.40063951 Ry
     estimated scf accuracy    <       0.00000008 Ry

     total magnetization       =     5.66 Bohr mag/cell
     absolute magnetization    =     6.05 Bohr mag/cell

     iteration # 28     ecut=    50.00 Ry     beta=0.70
     Davidson diagonalization with overlap
     ethr =  1.78E-10,  avg # of iterations =  2.4

     negative rho (up, down):  0.000E+00 9.688E-04

     Magnetic moment per site:
     atom:    1    charge:   14.7909    magn:    2.9201    constr:    0.0000
     atom:    2    charge:   14.7909    magn:    2.9201    constr:    0.0000

     total cpu time spent up to now is      102.4 secs

     total energy              =    -658.40063960 Ry
     Harris-Foulkes estimate   =    -658.40063959 Ry
     estimated scf accuracy    <       0.00000004 Ry

     total magnetization       =     5.66 Bohr mag/cell
     absolute magnetization    =     6.05 Bohr mag/cell

     iteration # 29     ecut=    50.00 Ry     beta=0.70
     Davidson diagonalization with overlap
     ethr =  1.15E-10,  avg # of iterations =  2.9

     negative rho (up, down):  0.000E+00 9.689E-04

     Magnetic moment per site:
     atom:    1    charge:   14.7908    magn:    2.9201    constr:    0.0000
     atom:    2    charge:   14.7908    magn:    2.9201    constr:    0.0000

     total cpu time spent up to now is      105.8 secs

     End of self-consistent calculation

 ------ SPIN UP ------------


          k = 0.0000 0.0000 0.0000 (  1461 PWs)   bands (ev):

   -77.9192 -77.9122 -43.9857 -43.9857 -43.9781 -43.9781 -43.8878 -43.8250
     3.8824   6.9534   8.2011   8.2011   8.3229   8.3229   8.3688   8.3688
     8.4966   8.8224   8.8224  10.1605

          k = 0.0000 0.0000 0.1938 (  1449 PWs)   bands (ev):

   -77.9170 -77.9140 -43.9836 -43.9836 -43.9794 -43.9794 -43.8732 -43.8418
     4.5846   6.2620   8.1333   8.1333   8.2196   8.2196   8.4119   8.5825
     8.5825   8.6211   8.7842   8.7842

          k = 0.0000 0.1925 0.0000 (  1435 PWs)   bands (ev):

   -77.9165 -77.9104 -44.0024 -43.9945 -43.9904 -43.9811 -43.8818 -43.8271
     4.5834   7.3439   7.9390   8.0259   8.2116   8.2538   8.3146   8.4491
     8.5495   8.7160   8.8514  11.6403

          k = 0.0000 0.1925 0.1938 (  1439 PWs)   bands (ev):

   -77.9150 -77.9120 -44.0009 -43.9969 -43.9881 -43.9833 -43.8684 -43.8411
     5.2410   6.7594   7.8568   7.9912   8.2071   8.2621   8.3118   8.4075
     8.6210   8.8083   8.8377   9.5918

          k = 0.0000 0.3849 0.0000 (  1450 PWs)   bands (ev):

   -77.9121 -77.9079 -44.0366 -44.0290 -44.0003 -43.9883 -43.8688 -43.8327
     6.2867   7.2646   7.3358   8.0528   8.0612   8.1086   8.5773   8.8739
     8.9892   9.0406   9.3747  14.2592

          k = 0.0000 0.3849 0.1938 (  1444 PWs)   bands (ev):

   -77.9110 -77.9088 -44.0353 -44.0314 -43.9975 -43.9915 -43.8587 -43.8412
     6.5339   7.0337   7.5692   7.7406   8.2313   8.6168   8.6710   8.8562
     9.0221   9.0665   9.2512  10.8461

          k = 0.0000-0.5774 0.0000 (  1464 PWs)   bands (ev):

   -77.9096 -77.9072 -44.0540 -44.0459 -44.0052 -43.9927 -43.8593 -43.8384
     7.0045   7.0448   7.1120   7.9315   7.9749   8.7558   8.8284   8.8762
     9.2711   9.3249  11.1193  12.2090

          k = 0.0000-0.5774 0.1938 (  1450 PWs)   bands (ev):

   -77.9088 -77.9076 -44.0525 -44.0485 -44.0020 -43.9958 -43.8528 -43.8423
     6.7449   6.9963   7.5164   7.5505   8.1779   8.6248   9.0325   9.2878
     9.3133   9.5145  11.1364  11.9674

          k = 0.1667 0.2887 0.0000 (  1446 PWs)   bands (ev):

   -77.9131 -77.9085 -44.0226 -44.0203 -43.9990 -43.9910 -43.8726 -43.8312
     5.8483   7.4494   7.7173   7.7461   7.9526   8.1989   8.2484   8.7945
     8.8255   9.0046   9.2438  13.5086

          k = 0.1667 0.2887 0.1938 (  1443 PWs)   bands (ev):

   -77.9120 -77.9096 -44.0222 -44.0208 -43.9973 -43.9934 -43.8615 -43.8410
     6.3170   7.1522   7.7854   7.8024   8.0987   8.1841   8.2454   8.5482
     9.0461   9.1041   9.2198  10.4803

          k = 0.1667 0.4811 0.0000 (  1460 PWs)   bands (ev):

   -77.9095 -77.9072 -44.0448 -44.0379 -44.0126 -44.0021 -43.8595 -43.8389
     7.1530   7.2075   7.4123   7.8445   8.0050   8.0951   8.5655   8.7911
     9.1659   9.4377  10.6733  14.2525

          k = 0.1667 0.4811 0.1938 (  1451 PWs)   bands (ev):

   -77.9087 -77.9076 -44.0437 -44.0403 -44.0102 -44.0048 -43.8528 -43.8426
     6.9846   7.2208   7.6023   7.7619   7.9711   8.3847   8.6393   8.6505
     9.3062   9.5191  10.9423  12.5919

          k = 0.3333 0.5774 0.0000 (  1434 PWs)   bands (ev):

   -77.9071 -77.9071 -44.0376 -44.0294 -44.0294 -44.0210 -43.8476 -43.8476
     7.1939   7.7175   7.7175   7.7770   7.8290   7.8290   8.4885   8.7105
     9.3777   9.3777  13.6152  13.7456

          k = 0.3333 0.5774 0.1938 (  1458 PWs)   bands (ev):

   -77.9074 -77.9074 -44.0340 -44.0310 -44.0310 -44.0258 -43.8464 -43.8464
     7.3898   7.5226   7.5226   7.7154   8.0304   8.0304   8.4409   8.5031
     9.4603   9.4603  14.1041  14.1041

 ------ SPIN DOWN ----------


          k = 0.0000 0.0000 0.0000 (  1461 PWs)   bands (ev):

   -74.5705 -74.5627 -40.6879 -40.6879 -40.6791 -40.6791 -40.6630 -40.5891
     4.0967   7.8905  10.1129  10.2314  10.8168  10.8168  10.9869  10.9869
    12.0257  12.0257  12.6298  12.6298

          k = 0.0000 0.0000 0.1938 (  1449 PWs)   bands (ev):

   -74.5682 -74.5647 -40.6855 -40.6855 -40.6808 -40.6808 -40.6453 -40.6084
     4.8038   6.6445   9.7884   9.9610  10.8180  10.8180  10.9067  10.9067
    12.2218  12.2218  12.5209  12.5209

          k = 0.0000 0.1925 0.0000 (  1435 PWs)   bands (ev):

   -74.5676 -74.5608 -40.7077 -40.6988 -40.6935 -40.6827 -40.6559 -40.5914
     4.8039   8.4038   9.9817  10.1574  10.6414  10.8355  11.1202  11.2642
    11.7680  11.8513  12.6774  13.5734

          k = 0.0000 0.1925 0.1938 (  1439 PWs)   bands (ev):

   -74.5659 -74.5626 -40.7065 -40.7018 -40.6909 -40.6853 -40.6393 -40.6073
     5.4887   7.2670   9.7536  10.0616  10.5571  10.7302  11.1053  11.1822
    12.0675  12.1069  12.5068  12.6425

          k = 0.0000 0.3849 0.0000 (  1450 PWs)   bands (ev):

   -74.5625 -74.5578 -40.7481 -40.7392 -40.7050 -40.6912 -40.6402 -40.5981
     6.7110   9.1438   9.7667   9.9542  10.3721  11.3017  11.3160  11.5669
    11.8083  11.8750  12.7132  15.0223

          k = 0.0000 0.3849 0.1938 (  1444 PWs)   bands (ev):

   -74.5612 -74.5589 -40.7473 -40.7427 -40.7018 -40.6948 -40.6279 -40.6073
     7.2773   8.5905   9.6671  10.1089  10.2686  10.7672  11.6604  11.8026
    11.8965  11.9930  12.4430  12.9138

          k = 0.0000-0.5774 0.0000 (  1464 PWs)   bands (ev):

   -74.5595 -74.5568 -40.7686 -40.7590 -40.7107 -40.6961 -40.6290 -40.6047
     8.4407   8.9859   9.6940   9.7504  10.4865  11.0493  11.4411  12.1802
    12.2455  12.4800  12.7169  13.5388

          k = 0.0000-0.5774 0.1938 (  1450 PWs)   bands (ev):

   -74.5587 -74.5573 -40.7677 -40.7628 -40.7070 -40.6997 -40.6208 -40.6087
     8.6091   8.9139   9.6619   9.8988  10.5929  11.4952  11.7082  12.0369
    12.1776  12.2348  12.3617  13.0412

          k = 0.1667 0.2887 0.0000 (  1446 PWs)   bands (ev):

   -74.5638 -74.5585 -40.7316 -40.7290 -40.7035 -40.6944 -40.6448 -40.5961
     6.1273   9.1230   9.8270   9.9276  10.5692  10.7864  11.3562  11.6356
    11.6917  11.8170  12.6404  14.9326

          k = 0.1667 0.2887 0.1938 (  1443 PWs)   bands (ev):

   -74.5624 -74.5598 -40.7319 -40.7302 -40.7018 -40.6972 -40.6309 -40.6070
     6.7521   8.3152   9.7223  10.1007  10.2906  10.4999  11.5007  11.6866
    11.9313  12.0307  12.4243  12.9071

          k = 0.1667 0.4811 0.0000 (  1460 PWs)   bands (ev):

   -74.5594 -74.5568 -40.7578 -40.7498 -40.7195 -40.7073 -40.6292 -40.6050
     8.2019   9.3394   9.6532   9.8715  10.6047  11.0687  11.3191  11.4285
    11.9589  12.5910  12.7233  15.1612

          k = 0.1667 0.4811 0.1938 (  1451 PWs)   bands (ev):

   -74.5587 -74.5574 -40.7571 -40.7531 -40.7170 -40.7107 -40.6207 -40.6088
     8.5738   9.2590   9.6681  10.0394  10.3138  10.6635  11.4784  11.8320
    12.0313  12.1722  12.9313  13.8880

          k = 0.3333 0.5774 0.0000 (  1434 PWs)   bands (ev):

   -74.5567 -74.5567 -40.7490 -40.7397 -40.7397 -40.7299 -40.6154 -40.6154
     9.3039   9.3039   9.5345  10.1038  10.9895  10.9895  10.9984  11.5117
    11.5117  12.4783  14.7621  14.8751

          k = 0.3333 0.5774 0.1938 (  1458 PWs)   bands (ev):

   -74.5570 -74.5570 -40.7446 -40.7424 -40.7424 -40.7352 -40.6131 -40.6131
     9.6136   9.6136   9.6826   9.9749  10.3848  10.3848  11.2358  11.8437
    11.8437  11.9206  15.1535  15.1535

     the Fermi energy is    10.6714 ev

!    total energy              =    -658.40063964 Ry
     Harris-Foulkes estimate   =    -658.40063962 Ry
     estimated scf accuracy    <          2.7E-09 Ry

     total all-electron energy =     -5090.993711 Ry

     The total energy is the sum of the following terms:

     one-electron contribution =    -300.04059799 Ry
     hartree contribution      =     161.98357557 Ry
     xc contribution           =     -69.39507289 Ry
     ewald contribution        =    -298.67061147 Ry
     one-center paw contrib.   =    -152.27715816 Ry
     smearing contrib. (-TS)   =      -0.00077470 Ry

     total magnetization       =     5.66 Bohr mag/cell
     absolute magnetization    =     6.05 Bohr mag/cell

     convergence has been achieved in  29 iterations

     Forces acting on atoms (Ry/au):


     negative rho (up, down):  0.000E+00 9.689E-04
     atom    1 type  1   force =     0.00000000    0.00000000    0.00000000
     atom    2 type  1   force =     0.00000000    0.00000000    0.00000000

     Total force =     0.000000     Total SCF correction =     0.000000


     entering subroutine stress ...


     negative rho (up, down):  0.000E+00 9.689E-04
          total   stress  (Ry/bohr**3)                   (kbar)     P= -297.77
  -0.00218074   0.00000000   0.00000000       -320.80      0.00      0.00
   0.00000000  -0.00218074   0.00000000          0.00   -320.80      0.00
   0.00000000   0.00000000  -0.00171117          0.00      0.00   -251.72


     Writing output data file Fe_hcp.save

     init_run     :      2.85s CPU      2.84s WALL (       1 calls)
     electrons    :    106.49s CPU    102.60s WALL (       1 calls)
     forces       :      0.52s CPU      0.46s WALL (       1 calls)
     stress       :      1.53s CPU      1.54s WALL (       1 calls)

     Called by init_run:
     wfcinit      :      1.19s CPU      1.14s WALL (       1 calls)
     potinit      :      1.06s CPU      1.08s WALL (       1 calls)

     Called by electrons:
     c_bands      :     61.82s CPU     57.28s WALL (      29 calls)
     sum_band     :     13.42s CPU     13.19s WALL (      29 calls)
     v_of_rho     :      1.71s CPU      1.76s WALL (      30 calls)
     newd         :      2.16s CPU      2.25s WALL (      30 calls)
     mix_rho      :      0.32s CPU      0.40s WALL (      29 calls)

     Called by c_bands:
     init_us_2    :      0.96s CPU      0.97s WALL (    1708 calls)
     cegterg      :     58.93s CPU     54.36s WALL (     812 calls)

     Called by *egterg:
     h_psi        :     47.44s CPU     45.95s WALL (    2505 calls)
     s_psi        :      2.11s CPU      1.21s WALL (    2505 calls)
     g_psi        :      0.30s CPU      0.30s WALL (    1665 calls)
     cdiaghg      :      2.18s CPU      2.20s WALL (    2477 calls)

     Called by h_psi:
     add_vuspsi   :      2.43s CPU      1.39s WALL (    2505 calls)

     General routines
     calbec       :      3.30s CPU      1.85s WALL (    3373 calls)
     fft          :      0.94s CPU      0.95s WALL (     964 calls)
     ffts         :      0.08s CPU      0.08s WALL (     118 calls)
     fftw         :     46.32s CPU     46.89s WALL (   92048 calls)
     interpolate  :      0.22s CPU      0.24s WALL (     118 calls)
     davcio       :      0.00s CPU      0.01s WALL (      28 calls)


     PAW routines
     PAW_pot      :     28.01s CPU     28.67s WALL (      30 calls)
     PAW_symme    :      0.04s CPU      0.04s WALL (      59 calls)

     PWSCF        :  1m51.81s CPU     1m47.95s WALL


   This run was terminated on:  18:33:44  11May2015            

=------------------------------------------------------------------------------=
   JOB DONE.
=------------------------------------------------------------------------------=
