
     Program PWSCF v.5.1.2 starts on 11May2015 at 20:13: 2 

     This program is part of the open-source Quantum ESPRESSO suite
     for quantum simulation of materials; please cite
         "P. Giannozzi et al., J. Phys.:Condens. Matter 21 395502 (2009);
          URL http://www.quantum-espresso.org", 
     in publications or presentations arising from this work. More details at
     http://www.quantum-espresso.org/quote

     Serial version
     Reading input from Fe_HCP_5.43_173_8_4.pw.in

     Current dimensions of program PWSCF are:
     Max number of different atomic species (ntypx) = 10
     Max number of k-points (npk) =  40000
     Max angular momentum in pseudopotentials (lmaxx) =  3
               file Fe.pbe-spn-kjpaw_psl.0.2.1.UPF: wavefunction(s)  3D renormalized

     G-vector sticks info
     --------------------
     sticks:   dense  smooth     PW     G-vecs:    dense   smooth      PW
     Sum         511     421    121                16061    11455    1979

     Generating pointlists ...
     new r_m :   0.4125 (alat units)  2.2399 (a.u.) for type    1


     bravais-lattice index     =            4
     lattice parameter (alat)  =       5.4300  a.u.
     unit-cell volume          =     239.8702 (a.u.)^3
     number of atoms/cell      =            2
     number of atomic types    =            1
     number of electrons       =        32.00
     number of Kohn-Sham states=           20
     kinetic-energy cutoff     =      50.0000  Ry
     charge density cutoff     =     250.0000  Ry
     convergence threshold     =      1.0E-08
     mixing beta               =       0.7000
     number of iterations used =            8  plain     mixing
     Exchange-correlation      =  SLA  PW   PBX  PBC ( 1  4  3  4 0 0)

     celldm(1)=   5.430000  celldm(2)=   0.000000  celldm(3)=   1.730000
     celldm(4)=   0.000000  celldm(5)=   0.000000  celldm(6)=   0.000000

     crystal axes: (cart. coord. in units of alat)
               a(1) = (   1.000000   0.000000   0.000000 )  
               a(2) = (  -0.500000   0.866025   0.000000 )  
               a(3) = (   0.000000   0.000000   1.730000 )  

     reciprocal axes: (cart. coord. in units 2 pi/alat)
               b(1) = (  1.000000  0.577350 -0.000000 )  
               b(2) = (  0.000000  1.154701  0.000000 )  
               b(3) = (  0.000000 -0.000000  0.578035 )  


     PseudoPot. # 1 for Fe read from file:
     ./Fe.pbe-spn-kjpaw_psl.0.2.1.UPF
     MD5 check sum: a0a08122d52b112de96d1da1d7dd020f
     Pseudo is Projector augmented-wave + core cor, Zval = 16.0
     Generated using "atomic" code by A. Dal Corso  v.5.0.2 svn rev. 9415
     Shape of augmentation charge: PSQ
     Using radial grid of 1191 points,  6 beta functions with: 
                l(1) =   0
                l(2) =   0
                l(3) =   1
                l(4) =   1
                l(5) =   2
                l(6) =   2
     Q(r) pseudized with 0 coefficients 


     atomic species   valence    mass     pseudopotential
        Fe            16.00    55.85000     Fe( 1.00)

     Starting magnetic structure 
     atomic species   magnetization
        Fe           0.700

     24 Sym. Ops., with inversion, found (12 have fractional translation)



   Cartesian axes

     site n.     atom                  positions (alat units)
         1           Fe  tau(   1) = (  -0.0000000   0.5773503   0.4325000  )
         2           Fe  tau(   2) = (   0.5000000   0.2886751   1.2975000  )

     number of k points=    60  Marzari-Vanderbilt smearing, width (Ry)=  0.0250
                       cart. coord. in units 2pi/alat
        k(    1) = (   0.0000000   0.0000000   0.0000000), wk =   0.0039062
        k(    2) = (   0.0000000   0.0000000   0.1445087), wk =   0.0078125
        k(    3) = (   0.0000000   0.0000000  -0.2890173), wk =   0.0039062
        k(    4) = (   0.0000000   0.1443376   0.0000000), wk =   0.0234375
        k(    5) = (   0.0000000   0.1443376   0.1445087), wk =   0.0468750
        k(    6) = (   0.0000000   0.1443376  -0.2890173), wk =   0.0234375
        k(    7) = (   0.0000000   0.2886751   0.0000000), wk =   0.0234375
        k(    8) = (   0.0000000   0.2886751   0.1445087), wk =   0.0468750
        k(    9) = (   0.0000000   0.2886751  -0.2890173), wk =   0.0234375
        k(   10) = (   0.0000000   0.4330127   0.0000000), wk =   0.0234375
        k(   11) = (   0.0000000   0.4330127   0.1445087), wk =   0.0468750
        k(   12) = (   0.0000000   0.4330127  -0.2890173), wk =   0.0234375
        k(   13) = (   0.0000000  -0.5773503   0.0000000), wk =   0.0117188
        k(   14) = (   0.0000000  -0.5773503   0.1445087), wk =   0.0234375
        k(   15) = (   0.0000000  -0.5773503  -0.2890173), wk =   0.0117188
        k(   16) = (   0.1250000   0.2165064   0.0000000), wk =   0.0234375
        k(   17) = (   0.1250000   0.2165064   0.1445087), wk =   0.0468750
        k(   18) = (   0.1250000   0.2165064  -0.2890173), wk =   0.0234375
        k(   19) = (   0.1250000   0.3608439   0.0000000), wk =   0.0468750
        k(   20) = (   0.1250000   0.3608439   0.1445087), wk =   0.0937500
        k(   21) = (   0.1250000   0.3608439  -0.2890173), wk =   0.0468750
        k(   22) = (   0.1250000   0.5051815   0.0000000), wk =   0.0468750
        k(   23) = (   0.1250000   0.5051815   0.1445087), wk =   0.0937500
        k(   24) = (   0.1250000   0.5051815  -0.2890173), wk =   0.0468750
        k(   25) = (   0.2500000   0.4330127   0.0000000), wk =   0.0234375
        k(   26) = (   0.2500000   0.4330127   0.1445087), wk =   0.0468750
        k(   27) = (   0.2500000   0.4330127  -0.2890173), wk =   0.0234375
        k(   28) = (   0.2500000   0.5773503   0.0000000), wk =   0.0234375
        k(   29) = (   0.2500000   0.5773503   0.1445087), wk =   0.0468750
        k(   30) = (   0.2500000   0.5773503  -0.2890173), wk =   0.0234375
        k(   31) = (   0.0000000   0.0000000   0.0000000), wk =   0.0039062
        k(   32) = (   0.0000000   0.0000000   0.1445087), wk =   0.0078125
        k(   33) = (   0.0000000   0.0000000  -0.2890173), wk =   0.0039062
        k(   34) = (   0.0000000   0.1443376   0.0000000), wk =   0.0234375
        k(   35) = (   0.0000000   0.1443376   0.1445087), wk =   0.0468750
        k(   36) = (   0.0000000   0.1443376  -0.2890173), wk =   0.0234375
        k(   37) = (   0.0000000   0.2886751   0.0000000), wk =   0.0234375
        k(   38) = (   0.0000000   0.2886751   0.1445087), wk =   0.0468750
        k(   39) = (   0.0000000   0.2886751  -0.2890173), wk =   0.0234375
        k(   40) = (   0.0000000   0.4330127   0.0000000), wk =   0.0234375
        k(   41) = (   0.0000000   0.4330127   0.1445087), wk =   0.0468750
        k(   42) = (   0.0000000   0.4330127  -0.2890173), wk =   0.0234375
        k(   43) = (   0.0000000  -0.5773503   0.0000000), wk =   0.0117188
        k(   44) = (   0.0000000  -0.5773503   0.1445087), wk =   0.0234375
        k(   45) = (   0.0000000  -0.5773503  -0.2890173), wk =   0.0117188
        k(   46) = (   0.1250000   0.2165064   0.0000000), wk =   0.0234375
        k(   47) = (   0.1250000   0.2165064   0.1445087), wk =   0.0468750
        k(   48) = (   0.1250000   0.2165064  -0.2890173), wk =   0.0234375
        k(   49) = (   0.1250000   0.3608439   0.0000000), wk =   0.0468750
        k(   50) = (   0.1250000   0.3608439   0.1445087), wk =   0.0937500
        k(   51) = (   0.1250000   0.3608439  -0.2890173), wk =   0.0468750
        k(   52) = (   0.1250000   0.5051815   0.0000000), wk =   0.0468750
        k(   53) = (   0.1250000   0.5051815   0.1445087), wk =   0.0937500
        k(   54) = (   0.1250000   0.5051815  -0.2890173), wk =   0.0468750
        k(   55) = (   0.2500000   0.4330127   0.0000000), wk =   0.0234375
        k(   56) = (   0.2500000   0.4330127   0.1445087), wk =   0.0468750
        k(   57) = (   0.2500000   0.4330127  -0.2890173), wk =   0.0234375
        k(   58) = (   0.2500000   0.5773503   0.0000000), wk =   0.0234375
        k(   59) = (   0.2500000   0.5773503   0.1445087), wk =   0.0468750
        k(   60) = (   0.2500000   0.5773503  -0.2890173), wk =   0.0234375

     Dense  grid:    16061 G-vectors     FFT dimensions: (  27,  27,  48)

     Smooth grid:    11455 G-vectors     FFT dimensions: (  25,  25,  45)

     Largest allocated arrays     est. size (Mb)     dimensions
        Kohn-Sham Wavefunctions         0.44 Mb     (    1452,   20)
        NL pseudopotentials             0.80 Mb     (    1452,   36)
        Each V/rho on FFT grid          1.07 Mb     (   34992,   2)
        Each G-vector array             0.12 Mb     (   16061)
        G-vector shells                 0.01 Mb     (     838)
     Largest temporary arrays     est. size (Mb)     dimensions
        Auxiliary wavefunctions         1.77 Mb     (    1452,   80)
        Each subspace H/S matrix        0.10 Mb     (      80,   80)
        Each <psi_i|beta_j> matrix      0.01 Mb     (      36,   20)
        Arrays for rho mixing           4.27 Mb     (   34992,    8)

     Check: negative/imaginary core charge=   -0.000320    0.000000

     Initial potential from superposition of free atoms

     starting charge   31.99912, renormalised to   32.00000
     Starting wfc are   26 randomized atomic wfcs

     total cpu time spent up to now is        8.0 secs

     Self-consistent Calculation

     iteration #  1     ecut=    50.00 Ry     beta=0.70
     Davidson diagonalization with overlap
     ethr =  1.00E-02,  avg # of iterations =  1.9

     negative rho (up, down):  0.000E+00 1.090E-03

     Magnetic moment per site:
     atom:    1    charge:   14.6100    magn:    5.9466    constr:    0.0000
     atom:    2    charge:   14.6100    magn:    5.9466    constr:    0.0000

     total cpu time spent up to now is       18.7 secs

     total energy              =    -657.96287932 Ry
     Harris-Foulkes estimate   =    -656.24962922 Ry
     estimated scf accuracy    <       2.83898627 Ry

     total magnetization       =     8.00 Bohr mag/cell
     absolute magnetization    =     8.27 Bohr mag/cell

     iteration #  2     ecut=    50.00 Ry     beta=0.70
     Davidson diagonalization with overlap
     ethr =  8.87E-03,  avg # of iterations =  1.6

     negative rho (up, down):  0.000E+00 1.065E-03

     Magnetic moment per site:
     atom:    1    charge:   14.8362    magn:    4.0365    constr:    0.0000
     atom:    2    charge:   14.8362    magn:    4.0365    constr:    0.0000

     total cpu time spent up to now is       27.8 secs

     total energy              =    -658.13384020 Ry
     Harris-Foulkes estimate   =    -658.17905683 Ry
     estimated scf accuracy    <       0.84197690 Ry

     total magnetization       =     6.58 Bohr mag/cell
     absolute magnetization    =     6.86 Bohr mag/cell

     iteration #  3     ecut=    50.00 Ry     beta=0.70
     Davidson diagonalization with overlap
     ethr =  2.63E-03,  avg # of iterations =  3.0

     negative rho (up, down):  0.000E+00 1.255E-03

     Magnetic moment per site:
     atom:    1    charge:   14.7218    magn:    3.0793    constr:    0.0000
     atom:    2    charge:   14.7218    magn:    3.0793    constr:    0.0000

     total cpu time spent up to now is       39.3 secs

     total energy              =    -658.17044719 Ry
     Harris-Foulkes estimate   =    -658.64832512 Ry
     estimated scf accuracy    <       1.32921780 Ry

     total magnetization       =     6.79 Bohr mag/cell
     absolute magnetization    =     7.04 Bohr mag/cell

     iteration #  4     ecut=    50.00 Ry     beta=0.70
     Davidson diagonalization with overlap
     ethr =  2.63E-03,  avg # of iterations =  2.7

     negative rho (up, down):  0.000E+00 1.031E-03

     Magnetic moment per site:
     atom:    1    charge:   14.7815    magn:    3.0133    constr:    0.0000
     atom:    2    charge:   14.7815    magn:    3.0133    constr:    0.0000

     total cpu time spent up to now is       50.3 secs

     total energy              =    -658.39973700 Ry
     Harris-Foulkes estimate   =    -658.39992848 Ry
     estimated scf accuracy    <       0.00651688 Ry

     total magnetization       =     5.91 Bohr mag/cell
     absolute magnetization    =     6.28 Bohr mag/cell

     iteration #  5     ecut=    50.00 Ry     beta=0.70
     Davidson diagonalization with overlap
     ethr =  2.04E-05,  avg # of iterations =  3.2

     negative rho (up, down):  0.000E+00 1.046E-03

     Magnetic moment per site:
     atom:    1    charge:   14.7697    magn:    3.0173    constr:    0.0000
     atom:    2    charge:   14.7697    magn:    3.0173    constr:    0.0000

     total cpu time spent up to now is       64.0 secs

     total energy              =    -658.40665918 Ry
     Harris-Foulkes estimate   =    -658.40567235 Ry
     estimated scf accuracy    <       0.00072110 Ry

     total magnetization       =     5.87 Bohr mag/cell
     absolute magnetization    =     6.23 Bohr mag/cell

     iteration #  6     ecut=    50.00 Ry     beta=0.70
     Davidson diagonalization with overlap
     ethr =  2.25E-06,  avg # of iterations =  1.9

     negative rho (up, down):  0.000E+00 1.050E-03

     Magnetic moment per site:
     atom:    1    charge:   14.7696    magn:    3.0180    constr:    0.0000
     atom:    2    charge:   14.7696    magn:    3.0180    constr:    0.0000

     total cpu time spent up to now is       73.2 secs

     total energy              =    -658.40678287 Ry
     Harris-Foulkes estimate   =    -658.40689032 Ry
     estimated scf accuracy    <       0.00057145 Ry

     total magnetization       =     5.86 Bohr mag/cell
     absolute magnetization    =     6.21 Bohr mag/cell

     iteration #  7     ecut=    50.00 Ry     beta=0.70
     Davidson diagonalization with overlap
     ethr =  1.79E-06,  avg # of iterations =  1.2

     negative rho (up, down):  0.000E+00 9.972E-04

     Magnetic moment per site:
     atom:    1    charge:   14.7683    magn:    3.0007    constr:    0.0000
     atom:    2    charge:   14.7683    magn:    3.0007    constr:    0.0000

     total cpu time spent up to now is       81.0 secs

     total energy              =    -658.40762231 Ry
     Harris-Foulkes estimate   =    -658.40681870 Ry
     estimated scf accuracy    <       0.00086578 Ry

     total magnetization       =     5.85 Bohr mag/cell
     absolute magnetization    =     6.21 Bohr mag/cell

     iteration #  8     ecut=    50.00 Ry     beta=0.70
     Davidson diagonalization with overlap
     ethr =  1.79E-06,  avg # of iterations =  2.5

     negative rho (up, down):  0.000E+00 1.020E-03

     Magnetic moment per site:
     atom:    1    charge:   14.7703    magn:    3.0077    constr:    0.0000
     atom:    2    charge:   14.7703    magn:    3.0077    constr:    0.0000

     total cpu time spent up to now is       90.6 secs

     total energy              =    -658.40741653 Ry
     Harris-Foulkes estimate   =    -658.40798781 Ry
     estimated scf accuracy    <       0.00021432 Ry

     total magnetization       =     5.82 Bohr mag/cell
     absolute magnetization    =     6.17 Bohr mag/cell

     iteration #  9     ecut=    50.00 Ry     beta=0.70
     Davidson diagonalization with overlap
     ethr =  6.70E-07,  avg # of iterations =  2.1

     negative rho (up, down):  0.000E+00 1.014E-03

     Magnetic moment per site:
     atom:    1    charge:   14.7703    magn:    3.0034    constr:    0.0000
     atom:    2    charge:   14.7703    magn:    3.0034    constr:    0.0000

     total cpu time spent up to now is      100.2 secs

     total energy              =    -658.40766563 Ry
     Harris-Foulkes estimate   =    -658.40745449 Ry
     estimated scf accuracy    <       0.00070391 Ry

     total magnetization       =     5.83 Bohr mag/cell
     absolute magnetization    =     6.18 Bohr mag/cell

     iteration # 10     ecut=    50.00 Ry     beta=0.70
     Davidson diagonalization with overlap
     ethr =  6.70E-07,  avg # of iterations =  1.1

     negative rho (up, down):  0.000E+00 1.013E-03

     Magnetic moment per site:
     atom:    1    charge:   14.7704    magn:    3.0017    constr:    0.0000
     atom:    2    charge:   14.7704    magn:    3.0017    constr:    0.0000

     total cpu time spent up to now is      108.5 secs

     total energy              =    -658.40768743 Ry
     Harris-Foulkes estimate   =    -658.40768013 Ry
     estimated scf accuracy    <       0.00053618 Ry

     total magnetization       =     5.83 Bohr mag/cell
     absolute magnetization    =     6.17 Bohr mag/cell

     iteration # 11     ecut=    50.00 Ry     beta=0.70
     Davidson diagonalization with overlap
     ethr =  6.70E-07,  avg # of iterations =  1.1

     negative rho (up, down):  0.000E+00 1.013E-03

     Magnetic moment per site:
     atom:    1    charge:   14.7704    magn:    3.0015    constr:    0.0000
     atom:    2    charge:   14.7704    magn:    3.0015    constr:    0.0000

     total cpu time spent up to now is      116.8 secs

     total energy              =    -658.40765164 Ry
     Harris-Foulkes estimate   =    -658.40769055 Ry
     estimated scf accuracy    <       0.00051062 Ry

     total magnetization       =     5.82 Bohr mag/cell
     absolute magnetization    =     6.16 Bohr mag/cell

     iteration # 12     ecut=    50.00 Ry     beta=0.70
     Davidson diagonalization with overlap
     ethr =  6.70E-07,  avg # of iterations =  1.0

     negative rho (up, down):  0.000E+00 1.013E-03

     Magnetic moment per site:
     atom:    1    charge:   14.7704    magn:    3.0020    constr:    0.0000
     atom:    2    charge:   14.7704    magn:    3.0020    constr:    0.0000

     total cpu time spent up to now is      125.0 secs

     total energy              =    -658.40760228 Ry
     Harris-Foulkes estimate   =    -658.40765232 Ry
     estimated scf accuracy    <       0.00051903 Ry

     total magnetization       =     5.82 Bohr mag/cell
     absolute magnetization    =     6.16 Bohr mag/cell

     iteration # 13     ecut=    50.00 Ry     beta=0.70
     Davidson diagonalization with overlap
     ethr =  6.70E-07,  avg # of iterations =  1.0

     negative rho (up, down):  0.000E+00 1.010E-03

     Magnetic moment per site:
     atom:    1    charge:   14.7706    magn:    2.9997    constr:    0.0000
     atom:    2    charge:   14.7706    magn:    2.9997    constr:    0.0000

     total cpu time spent up to now is      132.9 secs

     total energy              =    -658.40772108 Ry
     Harris-Foulkes estimate   =    -658.40760249 Ry
     estimated scf accuracy    <       0.00054262 Ry

     total magnetization       =     5.82 Bohr mag/cell
     absolute magnetization    =     6.16 Bohr mag/cell

     iteration # 14     ecut=    50.00 Ry     beta=0.70
     Davidson diagonalization with overlap
     ethr =  6.70E-07,  avg # of iterations =  1.0

     negative rho (up, down):  0.000E+00 1.012E-03

     Magnetic moment per site:
     atom:    1    charge:   14.7703    magn:    3.0011    constr:    0.0000
     atom:    2    charge:   14.7703    magn:    3.0011    constr:    0.0000

     total cpu time spent up to now is      141.5 secs

     total energy              =    -658.40761213 Ry
     Harris-Foulkes estimate   =    -658.40772275 Ry
     estimated scf accuracy    <       0.00046489 Ry

     total magnetization       =     5.82 Bohr mag/cell
     absolute magnetization    =     6.16 Bohr mag/cell

     iteration # 15     ecut=    50.00 Ry     beta=0.70
     Davidson diagonalization with overlap
     ethr =  6.70E-07,  avg # of iterations =  1.0

     negative rho (up, down):  0.000E+00 9.706E-04

     Magnetic moment per site:
     atom:    1    charge:   14.7757    magn:    2.9611    constr:    0.0000
     atom:    2    charge:   14.7757    magn:    2.9611    constr:    0.0000

     total cpu time spent up to now is      149.7 secs

     total energy              =    -658.40765558 Ry
     Harris-Foulkes estimate   =    -658.40761266 Ry
     estimated scf accuracy    <       0.00052520 Ry

     total magnetization       =     5.82 Bohr mag/cell
     absolute magnetization    =     6.16 Bohr mag/cell

     iteration # 16     ecut=    50.00 Ry     beta=0.70
     Davidson diagonalization with overlap
     ethr =  6.70E-07,  avg # of iterations =  3.0

     negative rho (up, down):  0.000E+00 9.844E-04

     Magnetic moment per site:
     atom:    1    charge:   14.7732    magn:    2.9737    constr:    0.0000
     atom:    2    charge:   14.7732    magn:    2.9737    constr:    0.0000

     total cpu time spent up to now is      160.8 secs

     total energy              =    -658.40832269 Ry
     Harris-Foulkes estimate   =    -658.40801653 Ry
     estimated scf accuracy    <       0.00006966 Ry

     total magnetization       =     5.78 Bohr mag/cell
     absolute magnetization    =     6.11 Bohr mag/cell

     iteration # 17     ecut=    50.00 Ry     beta=0.70
     Davidson diagonalization with overlap
     ethr =  2.18E-07,  avg # of iterations =  2.2

     negative rho (up, down):  0.000E+00 9.806E-04

     Magnetic moment per site:
     atom:    1    charge:   14.7736    magn:    2.9692    constr:    0.0000
     atom:    2    charge:   14.7736    magn:    2.9692    constr:    0.0000

     total cpu time spent up to now is      171.2 secs

     total energy              =    -658.40835509 Ry
     Harris-Foulkes estimate   =    -658.40834679 Ry
     estimated scf accuracy    <       0.00001989 Ry

     total magnetization       =     5.79 Bohr mag/cell
     absolute magnetization    =     6.12 Bohr mag/cell

     iteration # 18     ecut=    50.00 Ry     beta=0.70
     Davidson diagonalization with overlap
     ethr =  6.22E-08,  avg # of iterations =  2.1

     negative rho (up, down):  0.000E+00 9.796E-04

     Magnetic moment per site:
     atom:    1    charge:   14.7737    magn:    2.9674    constr:    0.0000
     atom:    2    charge:   14.7737    magn:    2.9674    constr:    0.0000

     total cpu time spent up to now is      181.2 secs

     total energy              =    -658.40836208 Ry
     Harris-Foulkes estimate   =    -658.40835992 Ry
     estimated scf accuracy    <       0.00000262 Ry

     total magnetization       =     5.79 Bohr mag/cell
     absolute magnetization    =     6.12 Bohr mag/cell

     iteration # 19     ecut=    50.00 Ry     beta=0.70
     Davidson diagonalization with overlap
     ethr =  8.19E-09,  avg # of iterations =  3.1

     negative rho (up, down):  0.000E+00 9.790E-04

     Magnetic moment per site:
     atom:    1    charge:   14.7737    magn:    2.9663    constr:    0.0000
     atom:    2    charge:   14.7737    magn:    2.9663    constr:    0.0000

     total cpu time spent up to now is      191.5 secs

     total energy              =    -658.40836365 Ry
     Harris-Foulkes estimate   =    -658.40836315 Ry
     estimated scf accuracy    <       0.00000077 Ry

     total magnetization       =     5.79 Bohr mag/cell
     absolute magnetization    =     6.12 Bohr mag/cell

     iteration # 20     ecut=    50.00 Ry     beta=0.70
     Davidson diagonalization with overlap
     ethr =  2.41E-09,  avg # of iterations =  3.0

     negative rho (up, down):  0.000E+00 9.792E-04

     Magnetic moment per site:
     atom:    1    charge:   14.7737    magn:    2.9662    constr:    0.0000
     atom:    2    charge:   14.7737    magn:    2.9662    constr:    0.0000

     total cpu time spent up to now is      202.4 secs

     total energy              =    -658.40836462 Ry
     Harris-Foulkes estimate   =    -658.40836414 Ry
     estimated scf accuracy    <       0.00000007 Ry

     total magnetization       =     5.79 Bohr mag/cell
     absolute magnetization    =     6.11 Bohr mag/cell

     iteration # 21     ecut=    50.00 Ry     beta=0.70
     Davidson diagonalization with overlap
     ethr =  2.07E-10,  avg # of iterations =  3.5

     negative rho (up, down):  0.000E+00 9.790E-04

     Magnetic moment per site:
     atom:    1    charge:   14.7738    magn:    2.9660    constr:    0.0000
     atom:    2    charge:   14.7738    magn:    2.9660    constr:    0.0000

     total cpu time spent up to now is      212.8 secs

     total energy              =    -658.40836479 Ry
     Harris-Foulkes estimate   =    -658.40836470 Ry
     estimated scf accuracy    <       0.00000007 Ry

     total magnetization       =     5.79 Bohr mag/cell
     absolute magnetization    =     6.11 Bohr mag/cell

     iteration # 22     ecut=    50.00 Ry     beta=0.70
     Davidson diagonalization with overlap
     ethr =  2.07E-10,  avg # of iterations =  2.5

     negative rho (up, down):  0.000E+00 9.789E-04

     Magnetic moment per site:
     atom:    1    charge:   14.7738    magn:    2.9659    constr:    0.0000
     atom:    2    charge:   14.7738    magn:    2.9659    constr:    0.0000

     total cpu time spent up to now is      221.4 secs

     End of self-consistent calculation

 ------ SPIN UP ------------


          k = 0.0000 0.0000 0.0000 (  1401 PWs)   bands (ev):

   -77.8020 -77.7953 -43.8610 -43.8610 -43.8529 -43.8529 -43.7766 -43.7120
     3.9617   7.0206   8.3187   8.3187   8.4398   8.4398   8.5139   8.5139
     8.5747   8.9646   8.9646  10.2489

          k = 0.0000 0.0000 0.1445 (  1407 PWs)   bands (ev):

   -77.8010 -77.7963 -43.8597 -43.8597 -43.8542 -43.8542 -43.7675 -43.7231
     4.3609   6.6699   8.2654   8.2654   8.3769   8.3769   8.5215   8.6522
     8.6522   8.9453   8.9453   9.0318

          k = 0.0000 0.0000-0.2890 (  1402 PWs)   bands (ev):

   -77.7985 -77.7985 -43.8568 -43.8568 -43.8568 -43.8568 -43.7460 -43.7460
     5.4579   5.4579   8.2797   8.2797   8.2797   8.2797   8.4813   8.4813
     8.8416   8.8416   8.8416   8.8416

          k = 0.0000 0.1443 0.0000 (  1411 PWs)   bands (ev):

   -77.8008 -77.7943 -43.8716 -43.8644 -43.8642 -43.8550 -43.7734 -43.7143
     4.3648   7.2717   8.1909   8.2781   8.3639   8.4431   8.4656   8.5287
     8.5749   8.7100   8.9834  11.2178

          k = 0.0000 0.1443 0.1445 (  1425 PWs)   bands (ev):

   -77.8000 -77.7955 -43.8712 -43.8655 -43.8633 -43.8570 -43.7651 -43.7234
     4.7523   6.9579   8.1155   8.1772   8.3586   8.3757   8.4921   8.4956
     8.6537   8.7984   8.9584   9.8409

          k = 0.0000 0.1443-0.2890 (  1432 PWs)   bands (ev):

   -77.7978 -77.7978 -43.8688 -43.8688 -43.8604 -43.8604 -43.7444 -43.7444
     5.8093   5.8093   8.1154   8.1154   8.3851   8.3851   8.3876   8.3876
     8.8453   8.8453   9.0779   9.0779

          k = 0.0000 0.2887 0.0000 (  1427 PWs)   bands (ev):

   -77.7975 -77.7924 -43.8981 -43.8902 -43.8721 -43.8609 -43.7648 -43.7172
     5.4825   7.5550   7.6594   8.1278   8.2951   8.3055   8.3663   8.8417
     8.9168   9.0069   9.0627  12.9879

          k = 0.0000 0.2887 0.1445 (  1433 PWs)   bands (ev):

   -77.7969 -77.7932 -43.8970 -43.8917 -43.8708 -43.8629 -43.7577 -43.7243
     5.7997   7.3215   7.7348   8.0288   8.3629   8.3659   8.4465   8.7652
     8.8940   9.0279   9.0816  10.8350

          k = 0.0000 0.2887-0.2890 (  1430 PWs)   bands (ev):

   -77.7950 -77.7950 -43.8946 -43.8946 -43.8671 -43.8671 -43.7404 -43.7404
     6.5917   6.5917   7.9119   7.9119   8.4520   8.4520   8.5438   8.5438
     8.9761   8.9761   9.4605   9.4605

          k = 0.0000 0.4330 0.0000 (  1424 PWs)   bands (ev):

   -77.7939 -77.7904 -43.9232 -43.9149 -43.8791 -43.8667 -43.7536 -43.7223
     6.7380   7.2758   7.3512   8.1223   8.1645   8.3786   8.8084   9.0142
     9.2465   9.2924   9.8015  14.5000

          k = 0.0000 0.4330 0.1445 (  1438 PWs)   bands (ev):

   -77.7935 -77.7911 -43.9229 -43.9174 -43.8778 -43.8689 -43.7486 -43.7264
     6.7415   7.1984   7.5549   7.8113   8.2717   8.8141   8.8606   9.1001
     9.2600   9.3029   9.6624  12.1972

          k = 0.0000 0.4330-0.2890 (  1432 PWs)   bands (ev):

   -77.7922 -77.7922 -43.9206 -43.9206 -43.8733 -43.8733 -43.7367 -43.7367
     6.9163   6.9163   7.7299   7.7299   8.5477   8.5477   9.2697   9.2697
     9.2888   9.2888  10.2424  10.2424

          k = 0.0000-0.5774 0.0000 (  1432 PWs)   bands (ev):

   -77.7922 -77.7901 -43.9341 -43.9263 -43.8823 -43.8689 -43.7471 -43.7256
     7.1014   7.1525   7.2016   8.0480   8.1137   8.8544   8.9438   9.0144
     9.4158   9.4685  11.2652  12.3812

          k = 0.0000-0.5774 0.1445 (  1428 PWs)   bands (ev):

   -77.7919 -77.7902 -43.9336 -43.9277 -43.8803 -43.8708 -43.7433 -43.7285
     6.8610   7.1609   7.5333   7.7130   8.2314   8.8646   8.9986   9.4260
     9.4618   9.4869  11.2153  12.2519

          k = 0.0000-0.5774-0.2890 (  1452 PWs)   bands (ev):

   -77.7914 -77.7914 -43.9315 -43.9315 -43.8761 -43.8761 -43.7358 -43.7358
     6.9236   6.9236   7.6517   7.6517   8.5327   8.5327   9.4451   9.4451
     9.5076   9.5076  11.6651  11.6651

          k = 0.1250 0.2165 0.0000 (  1422 PWs)   bands (ev):

   -77.7985 -77.7929 -43.8882 -43.8832 -43.8692 -43.8617 -43.7674 -43.7163
     5.1336   7.6336   7.8351   7.9954   8.2205   8.2791   8.4668   8.7454
     8.7936   8.9800   9.0029  12.4745

          k = 0.1250 0.2165 0.1445 (  1430 PWs)   bands (ev):

   -77.7979 -77.7938 -43.8876 -43.8843 -43.8683 -43.8632 -43.7599 -43.7240
     5.4842   7.3475   7.8376   8.0033   8.2482   8.3201   8.4275   8.6763
     8.8685   8.9705   9.0400  10.5592

          k = 0.1250 0.2165-0.2890 (  1418 PWs)   bands (ev):

   -77.7957 -77.7957 -43.8858 -43.8858 -43.8659 -43.8659 -43.7412 -43.7412
     6.4069   6.4069   7.9731   7.9731   8.2697   8.2697   8.5217   8.5217
     8.9752   8.9752   9.3556   9.3556

          k = 0.1250 0.3608 0.0000 (  1436 PWs)   bands (ev):

   -77.7952 -77.7911 -43.9111 -43.9058 -43.8796 -43.8701 -43.7576 -43.7208
     6.4292   7.4269   7.6103   8.0169   8.0527   8.3028   8.4520   8.9664
     9.0301   9.2795   9.6083  14.4510

          k = 0.1250 0.3608 0.1445 (  1428 PWs)   bands (ev):

   -77.7945 -77.7916 -43.9107 -43.9068 -43.8782 -43.8715 -43.7513 -43.7254
     6.6049   7.3282   7.6872   7.9292   8.2718   8.3380   8.4698   8.7959
     9.1369   9.3491   9.5880  11.7519

          k = 0.1250 0.3608-0.2890 (  1426 PWs)   bands (ev):

   -77.7930 -77.7930 -43.9091 -43.9091 -43.8752 -43.8752 -43.7377 -43.7377
     6.9874   6.9874   7.8690   7.8690   8.3918   8.3918   8.5664   8.5664
     9.4212   9.4212   9.9827   9.9827

          k = 0.1250 0.5052 0.0000 (  1443 PWs)   bands (ev):

   -77.7924 -77.7901 -43.9287 -43.9206 -43.8874 -43.8756 -43.7477 -43.7267
     7.2171   7.2230   7.3928   8.0115   8.1138   8.4417   8.7619   8.9560
     9.3423   9.5373  10.8925  13.7079

          k = 0.1250 0.5052 0.1445 (  1435 PWs)   bands (ev):

   -77.7919 -77.7903 -43.9280 -43.9224 -43.8858 -43.8772 -43.7435 -43.7286
     6.9983   7.3213   7.6160   7.7683   8.1214   8.7215   8.8509   8.8918
     9.3756   9.6158  10.9825  13.1341

          k = 0.1250 0.5052-0.2890 (  1428 PWs)   bands (ev):

   -77.7910 -77.7910 -43.9254 -43.9254 -43.8815 -43.8815 -43.7352 -43.7352
     7.0720   7.0720   7.7583   7.7583   8.3805   8.3805   9.0033   9.0033
     9.5726   9.5726  11.6918  11.6918

          k = 0.2500 0.4330 0.0000 (  1446 PWs)   bands (ev):

   -77.7925 -77.7902 -43.9189 -43.9162 -43.8929 -43.8851 -43.7477 -43.7265
     7.3118   7.4590   7.7433   7.8385   7.9216   8.1552   8.5550   8.8919
     9.2261   9.5861  10.7873  15.6520

          k = 0.2500 0.4330 0.1445 (  1442 PWs)   bands (ev):

   -77.7921 -77.7904 -43.9183 -43.9166 -43.8927 -43.8867 -43.7433 -43.7287
     7.3044   7.3491   7.7449   7.9472   8.0732   8.2089   8.5462   8.7375
     9.3361   9.6305  10.9387  13.4924

          k = 0.2500 0.4330-0.2890 (  1428 PWs)   bands (ev):

   -77.7910 -77.7910 -43.9174 -43.9174 -43.8897 -43.8897 -43.7349 -43.7349
     7.2886   7.2886   7.8965   7.8965   8.2107   8.2107   8.5652   8.5652
     9.5941   9.5941  11.7077  11.7077

          k = 0.2500 0.5774 0.0000 (  1438 PWs)   bands (ev):

   -77.7909 -77.7899 -43.9221 -43.9136 -43.9027 -43.8925 -43.7406 -43.7317
     7.2883   7.6664   7.6798   7.9507   7.9977   8.0867   8.6434   8.8600
     9.4098   9.5634  12.8294  13.2711

          k = 0.2500 0.5774 0.1445 (  1443 PWs)   bands (ev):

   -77.7908 -77.7901 -43.9210 -43.9153 -43.9021 -43.8946 -43.7381 -43.7321
     7.3005   7.6680   7.7400   7.7537   8.0099   8.2824   8.6509   8.7273
     9.4742   9.6110  13.1450  13.4264

          k = 0.2500 0.5774-0.2890 (  1452 PWs)   bands (ev):

   -77.7906 -77.7906 -43.9188 -43.9188 -43.8989 -43.8989 -43.7343 -43.7343
     7.4073   7.4073   7.8458   7.8458   8.1339   8.1339   8.6576   8.6576
     9.6039   9.6039  13.6840  13.6840

 ------ SPIN DOWN ----------


          k = 0.0000 0.0000 0.0000 (  1401 PWs)   bands (ev):

   -74.4116 -74.4038 -40.5242 -40.5242 -40.5149 -40.5149 -40.5097 -40.4340
     4.2244   8.0154  10.2539  10.3630  10.9790  10.9790  11.1473  11.1473
    12.1942  12.1942  12.7935  12.7935

          k = 0.0000 0.0000 0.1445 (  1407 PWs)   bands (ev):

   -74.4106 -74.4051 -40.5227 -40.5227 -40.5164 -40.5164 -40.4991 -40.4465
     4.6257   7.2652   9.9853  10.1631  10.9758  10.9758  11.0983  11.0983
    12.3122  12.3122  12.7331  12.7331

          k = 0.0000 0.0000-0.2890 (  1402 PWs)   bands (ev):

   -74.4078 -74.4078 -40.5195 -40.5195 -40.5195 -40.5195 -40.4731 -40.4731
     5.7566   5.7566   9.9775   9.9775  11.0123  11.0123  11.0123  11.0123
    12.5501  12.5501  12.5501  12.5501

          k = 0.0000 0.1443 0.0000 (  1411 PWs)   bands (ev):

   -74.4103 -74.4028 -40.5367 -40.5283 -40.5279 -40.5174 -40.5059 -40.4361
     4.6294   8.3233  10.1934  10.3023  10.8643  11.0336  11.1575  11.3118
    12.0301  12.0869  12.8246  13.3629

          k = 0.0000 0.1443 0.1445 (  1425 PWs)   bands (ev):

   -74.4092 -74.4041 -40.5364 -40.5298 -40.5268 -40.5196 -40.4955 -40.4465
     5.0241   7.6111   9.9255  10.2289  10.8237  10.9950  11.1485  11.2613
    12.1852  12.2277  12.7412  12.8889

          k = 0.0000 0.1443-0.2890 (  1432 PWs)   bands (ev):

   -74.4068 -74.4068 -40.5338 -40.5338 -40.5233 -40.5233 -40.4708 -40.4708
     6.1360   6.1360  10.0110  10.0110  10.8671  10.8671  11.1779  11.1779
    12.5103  12.5103  12.5218  12.5218

          k = 0.0000 0.2887 0.0000 (  1427 PWs)   bands (ev):

   -74.4064 -74.4005 -40.5676 -40.5586 -40.5370 -40.5242 -40.4955 -40.4396
     5.7859   9.0111   9.9649  10.2286  10.6159  11.1064  11.6245  11.6894
    11.7325  11.8676  12.8623  14.6898

          k = 0.0000 0.2887 0.1445 (  1433 PWs)   bands (ev):

   -74.4056 -74.4014 -40.5672 -40.5607 -40.5354 -40.5264 -40.4865 -40.4474
     6.1531   8.4828   9.8202  10.2975  10.5177  10.9073  11.5835  11.6762
    11.9530  12.0705  12.7333  13.2200

          k = 0.0000 0.2887-0.2890 (  1430 PWs)   bands (ev):

   -74.4035 -74.4035 -40.5647 -40.5647 -40.5311 -40.5311 -40.4659 -40.4659
     7.1824   7.1824  10.0654  10.0654  10.6133  10.6133  11.6008  11.6008
    12.4195  12.4195  12.4717  12.4717

          k = 0.0000 0.4330 0.0000 (  1424 PWs)   bands (ev):

   -74.4022 -74.3982 -40.5976 -40.5880 -40.5452 -40.5309 -40.4822 -40.4455
     7.4385   9.3003   9.8807  10.0468  10.5483  11.3402  11.6774  11.7533
    12.1496  12.2030  12.8741  15.2062

          k = 0.0000 0.4330 0.1445 (  1438 PWs)   bands (ev):

   -74.4017 -74.3990 -40.5976 -40.5910 -40.5435 -40.5333 -40.4758 -40.4499
     7.7137   9.1343   9.7407  10.2136  10.4852  11.1887  11.7961  11.9368
    12.1660  12.1927  12.6979  13.6591

          k = 0.0000 0.4330-0.2890 (  1432 PWs)   bands (ev):

   -74.4003 -74.4003 -40.5954 -40.5954 -40.5384 -40.5384 -40.4615 -40.4615
     8.4210   8.4210   9.9803   9.9803  10.7951  10.7951  12.0380  12.0380
    12.3634  12.3634  12.4929  12.4929

          k = 0.0000-0.5774 0.0000 (  1432 PWs)   bands (ev):

   -74.4001 -74.3977 -40.6104 -40.6010 -40.5488 -40.5335 -40.4747 -40.4497
     8.5917   9.1270   9.8736   9.8803  10.6383  11.1841  11.6039  12.3714
    12.4352  12.6756  12.8747  13.7507

          k = 0.0000-0.5774 0.1445 (  1428 PWs)   bands (ev):

   -74.3998 -74.3979 -40.6103 -40.6033 -40.5467 -40.5357 -40.4697 -40.4523
     8.6846   9.1000   9.7982  10.0140  10.6546  11.5689  11.7581  12.3157
    12.3734  12.4287  12.6585  13.4622

          k = 0.0000-0.5774-0.2890 (  1452 PWs)   bands (ev):

   -74.3991 -74.3991 -40.6081 -40.6081 -40.5417 -40.5417 -40.4603 -40.4603
     8.9050   8.9050   9.9319   9.9319  11.2226  11.2226  12.1580  12.1580
    12.4192  12.4192  12.6547  12.6547

          k = 0.1250 0.2165 0.0000 (  1422 PWs)   bands (ev):

   -74.4075 -74.4012 -40.5560 -40.5506 -40.5336 -40.5250 -40.4987 -40.4385
     5.4129   8.8411  10.0223  10.2529  10.8268  10.8325  11.4981  11.6423
    11.7313  11.9934  12.8208  14.2991

          k = 0.1250 0.2165 0.1445 (  1430 PWs)   bands (ev):

   -74.4068 -74.4021 -40.5559 -40.5519 -40.5327 -40.5267 -40.4891 -40.4470
     5.7912   8.2373   9.8524  10.2868  10.6216  10.8252  11.4618  11.5752
    12.0127  12.1211  12.7080  13.1464

          k = 0.1250 0.2165-0.2890 (  1418 PWs)   bands (ev):

   -74.4043 -74.4043 -40.5542 -40.5542 -40.5300 -40.5300 -40.4669 -40.4669
     6.8573   6.8573  10.0692  10.0692  10.6292  10.6292  11.4931  11.4931
    12.4241  12.4241  12.5056  12.5056

          k = 0.1250 0.3608 0.0000 (  1436 PWs)   bands (ev):

   -74.4036 -74.3990 -40.5832 -40.5771 -40.5458 -40.5348 -40.4868 -40.4437
     6.8467   9.4046   9.9333  10.0200  10.6202  11.1807  11.4130  11.7435
    11.9737  12.1944  12.8026  15.3537

          k = 0.1250 0.3608 0.1445 (  1428 PWs)   bands (ev):

   -74.4028 -74.3995 -40.5832 -40.5787 -40.5444 -40.5365 -40.4789 -40.4487
     7.1769   9.1195   9.7775  10.1536  10.4993  10.8576  11.6690  11.8317
    12.1168  12.1812  12.6739  13.6440

          k = 0.1250 0.3608-0.2890 (  1426 PWs)   bands (ev):

   -74.4012 -74.4012 -40.5818 -40.5818 -40.5408 -40.5408 -40.4626 -40.4626
     8.0712   8.0712  10.0878  10.0878  10.4650  10.4650  11.8816  11.8816
    12.3712  12.3712  12.5910  12.5910

          k = 0.1250 0.5052 0.0000 (  1443 PWs)   bands (ev):

   -74.4004 -74.3977 -40.6038 -40.5944 -40.5549 -40.5412 -40.4751 -40.4504
     8.4242   9.3683   9.8422   9.9591  10.7016  11.2083  11.5123  11.8391
    12.1972  12.7875  12.8688  14.7910

          k = 0.1250 0.5052 0.1445 (  1435 PWs)   bands (ev):

   -74.3999 -74.3980 -40.6034 -40.5969 -40.5532 -40.5432 -40.4698 -40.4524
     8.6038   9.3446   9.7601  10.1467  10.5634  11.1140  11.6686  11.9436
    12.2695  12.4534  12.9653  14.2025

          k = 0.1250 0.5052-0.2890 (  1428 PWs)   bands (ev):

   -74.3989 -74.3989 -40.6010 -40.6010 -40.5483 -40.5483 -40.4596 -40.4596
     9.0128   9.0128  10.0102  10.0102  10.7597  10.7597  11.9706  11.9706
    12.2649  12.2649  13.2603  13.2603

          k = 0.2500 0.4330 0.0000 (  1446 PWs)   bands (ev):

   -74.4004 -74.3977 -40.5923 -40.5890 -40.5615 -40.5523 -40.4752 -40.4503
     8.3066   9.6490   9.7405  10.0524  10.8657  11.1972  11.3138  11.4474
    12.0965  12.6976  12.9774  16.3740

          k = 0.2500 0.4330 0.1445 (  1442 PWs)   bands (ev):

   -74.4000 -74.3981 -40.5921 -40.5901 -40.5613 -40.5544 -40.4696 -40.4524
     8.5511   9.7278   9.8520   9.8649  10.7189  10.7538  11.3978  11.7973
    12.2837  12.3414  13.1382  14.8178

          k = 0.2500 0.4330-0.2890 (  1428 PWs)   bands (ev):

   -74.3989 -74.3989 -40.5915 -40.5915 -40.5582 -40.5582 -40.4592 -40.4592
     9.1634   9.1634  10.0853  10.0853  10.3649  10.3649  11.7891  11.7891
    12.2748  12.2748  13.5578  13.5578

          k = 0.2500 0.5774 0.0000 (  1438 PWs)   bands (ev):

   -74.3986 -74.3975 -40.5960 -40.5862 -40.5730 -40.5612 -40.4668 -40.4565
     9.2218   9.5746   9.6328  10.1728  11.0074  11.1517  11.2131  11.7089
    11.8397  12.6526  14.1863  14.6456

          k = 0.2500 0.5774 0.1445 (  1443 PWs)   bands (ev):

   -74.3985 -74.3977 -40.5951 -40.5886 -40.5726 -40.5638 -40.4634 -40.4563
     9.3806   9.6653   9.7406  10.1873  10.6672  10.7917  11.3790  11.9026
    12.0488  12.3056  14.4706  14.7308

          k = 0.2500 0.5774-0.2890 (  1452 PWs)   bands (ev):

   -74.3982 -74.3982 -40.5928 -40.5928 -40.5690 -40.5690 -40.4583 -40.4583
     9.6513   9.6513  10.1567  10.1567  10.3243  10.3243  11.7465  11.7465
    12.1225  12.1225  14.8325  14.8325

     the Fermi energy is    10.8159 ev

!    total energy              =    -658.40836487 Ry
     Harris-Foulkes estimate   =    -658.40836482 Ry
     estimated scf accuracy    <          8.9E-09 Ry

     total all-electron energy =     -5091.001436 Ry

     The total energy is the sum of the following terms:

     one-electron contribution =    -298.27526326 Ry
     hartree contribution      =     161.26413661 Ry
     xc contribution           =     -69.40614939 Ry
     ewald contribution        =    -299.71235084 Ry
     one-center paw contrib.   =    -152.27802272 Ry
     smearing contrib. (-TS)   =      -0.00071526 Ry

     total magnetization       =     5.79 Bohr mag/cell
     absolute magnetization    =     6.11 Bohr mag/cell

     convergence has been achieved in  22 iterations

     Forces acting on atoms (Ry/au):


     negative rho (up, down):  0.000E+00 9.789E-04
     atom    1 type  1   force =    -0.00000000    0.00000000    0.00000000
     atom    2 type  1   force =     0.00000000    0.00000000    0.00000000

     Total force =     0.000000     Total SCF correction =     0.000000


     entering subroutine stress ...


     negative rho (up, down):  0.000E+00 9.789E-04
          total   stress  (Ry/bohr**3)                   (kbar)     P= -293.59
  -0.00212352   0.00000000   0.00000000       -312.38      0.00      0.00
   0.00000000  -0.00212352   0.00000000          0.00   -312.38      0.00
  -0.00000000  -0.00000000  -0.00174025         -0.00     -0.00   -256.00


     Writing output data file Fe_hcp.save

     init_run     :      6.90s CPU      7.57s WALL (       1 calls)
     electrons    :    222.36s CPU    213.40s WALL (       1 calls)
     forces       :      1.13s CPU      1.00s WALL (       1 calls)
     stress       :      3.40s CPU      3.60s WALL (       1 calls)

     Called by init_run:
     wfcinit      :      4.10s CPU      4.19s WALL (       1 calls)
     potinit      :      1.91s CPU      2.22s WALL (       1 calls)

     Called by electrons:
     c_bands      :    154.25s CPU    143.55s WALL (      22 calls)
     sum_band     :     28.92s CPU     28.64s WALL (      22 calls)
     v_of_rho     :      1.91s CPU      2.10s WALL (      23 calls)
     newd         :      2.94s CPU      3.16s WALL (      23 calls)
     mix_rho      :      0.46s CPU      0.61s WALL (      22 calls)

     Called by c_bands:
     init_us_2    :      2.76s CPU      2.84s WALL (    2820 calls)
     cegterg      :    147.16s CPU    136.24s WALL (    1320 calls)

     Called by *egterg:
     h_psi        :    114.41s CPU    112.02s WALL (    4132 calls)
     s_psi        :      6.07s CPU      3.63s WALL (    4132 calls)
     g_psi        :      0.61s CPU      0.63s WALL (    2752 calls)
     cdiaghg      :      4.63s CPU      4.74s WALL (    4072 calls)

     Called by h_psi:
     add_vuspsi   :      6.59s CPU      3.92s WALL (    4132 calls)

     General routines
     calbec       :      9.58s CPU      5.53s WALL (    5572 calls)
     fft          :      1.23s CPU      1.30s WALL (     747 calls)
     ffts         :      0.08s CPU      0.08s WALL (      90 calls)
     fftw         :    100.63s CPU    103.61s WALL (  153752 calls)
     interpolate  :      0.28s CPU      0.31s WALL (      90 calls)
     davcio       :      0.00s CPU      0.03s WALL (      60 calls)


     PAW routines
     PAW_pot      :     35.69s CPU     37.41s WALL (      23 calls)
     PAW_symme    :      0.03s CPU      0.03s WALL (      45 calls)

     PWSCF        :  3m54.34s CPU     3m46.41s WALL


   This run was terminated on:  20:16:48  11May2015            

=------------------------------------------------------------------------------=
   JOB DONE.
=------------------------------------------------------------------------------=
