
     Program PWSCF v.5.1.2 starts on 11May2015 at 19:27:53 

     This program is part of the open-source Quantum ESPRESSO suite
     for quantum simulation of materials; please cite
         "P. Giannozzi et al., J. Phys.:Condens. Matter 21 395502 (2009);
          URL http://www.quantum-espresso.org", 
     in publications or presentations arising from this work. More details at
     http://www.quantum-espresso.org/quote

     Serial version
     Reading input from Fe_HCP_5.46_173_7_4.pw.in

     Current dimensions of program PWSCF are:
     Max number of different atomic species (ntypx) = 10
     Max number of k-points (npk) =  40000
     Max angular momentum in pseudopotentials (lmaxx) =  3
               file Fe.pbe-spn-kjpaw_psl.0.2.1.UPF: wavefunction(s)  3D renormalized

     G-vector sticks info
     --------------------
     sticks:   dense  smooth     PW     G-vecs:    dense   smooth      PW
     Sum         511     421    121                16325    11755    1979

     Generating pointlists ...
     new r_m :   0.4125 (alat units)  2.2523 (a.u.) for type    1


     bravais-lattice index     =            4
     lattice parameter (alat)  =       5.4600  a.u.
     unit-cell volume          =     243.8679 (a.u.)^3
     number of atoms/cell      =            2
     number of atomic types    =            1
     number of electrons       =        32.00
     number of Kohn-Sham states=           20
     kinetic-energy cutoff     =      50.0000  Ry
     charge density cutoff     =     250.0000  Ry
     convergence threshold     =      1.0E-08
     mixing beta               =       0.7000
     number of iterations used =            8  plain     mixing
     Exchange-correlation      =  SLA  PW   PBX  PBC ( 1  4  3  4 0 0)

     celldm(1)=   5.460000  celldm(2)=   0.000000  celldm(3)=   1.730000
     celldm(4)=   0.000000  celldm(5)=   0.000000  celldm(6)=   0.000000

     crystal axes: (cart. coord. in units of alat)
               a(1) = (   1.000000   0.000000   0.000000 )  
               a(2) = (  -0.500000   0.866025   0.000000 )  
               a(3) = (   0.000000   0.000000   1.730000 )  

     reciprocal axes: (cart. coord. in units 2 pi/alat)
               b(1) = (  1.000000  0.577350 -0.000000 )  
               b(2) = (  0.000000  1.154701  0.000000 )  
               b(3) = (  0.000000 -0.000000  0.578035 )  


     PseudoPot. # 1 for Fe read from file:
     ./Fe.pbe-spn-kjpaw_psl.0.2.1.UPF
     MD5 check sum: a0a08122d52b112de96d1da1d7dd020f
     Pseudo is Projector augmented-wave + core cor, Zval = 16.0
     Generated using "atomic" code by A. Dal Corso  v.5.0.2 svn rev. 9415
     Shape of augmentation charge: PSQ
     Using radial grid of 1191 points,  6 beta functions with: 
                l(1) =   0
                l(2) =   0
                l(3) =   1
                l(4) =   1
                l(5) =   2
                l(6) =   2
     Q(r) pseudized with 0 coefficients 


     atomic species   valence    mass     pseudopotential
        Fe            16.00    55.85000     Fe( 1.00)

     Starting magnetic structure 
     atomic species   magnetization
        Fe           0.700

     24 Sym. Ops., with inversion, found (12 have fractional translation)



   Cartesian axes

     site n.     atom                  positions (alat units)
         1           Fe  tau(   1) = (  -0.0000000   0.5773503   0.4325000  )
         2           Fe  tau(   2) = (   0.5000000   0.2886751   1.2975000  )

     number of k points=    48  Marzari-Vanderbilt smearing, width (Ry)=  0.0250
                       cart. coord. in units 2pi/alat
        k(    1) = (   0.0000000   0.0000000   0.0000000), wk =   0.0051020
        k(    2) = (   0.0000000   0.0000000   0.1445087), wk =   0.0102041
        k(    3) = (   0.0000000   0.0000000  -0.2890173), wk =   0.0051020
        k(    4) = (   0.0000000   0.1649572   0.0000000), wk =   0.0306122
        k(    5) = (   0.0000000   0.1649572   0.1445087), wk =   0.0612245
        k(    6) = (   0.0000000   0.1649572  -0.2890173), wk =   0.0306122
        k(    7) = (   0.0000000   0.3299144   0.0000000), wk =   0.0306122
        k(    8) = (   0.0000000   0.3299144   0.1445087), wk =   0.0612245
        k(    9) = (   0.0000000   0.3299144  -0.2890173), wk =   0.0306122
        k(   10) = (   0.0000000   0.4948717   0.0000000), wk =   0.0306122
        k(   11) = (   0.0000000   0.4948717   0.1445087), wk =   0.0612245
        k(   12) = (   0.0000000   0.4948717  -0.2890173), wk =   0.0306122
        k(   13) = (   0.1428571   0.2474358   0.0000000), wk =   0.0306122
        k(   14) = (   0.1428571   0.2474358   0.1445087), wk =   0.0612245
        k(   15) = (   0.1428571   0.2474358  -0.2890173), wk =   0.0306122
        k(   16) = (   0.1428571   0.4123930   0.0000000), wk =   0.0612245
        k(   17) = (   0.1428571   0.4123930   0.1445087), wk =   0.1224490
        k(   18) = (   0.1428571   0.4123930  -0.2890173), wk =   0.0612245
        k(   19) = (   0.1428571   0.5773503   0.0000000), wk =   0.0306122
        k(   20) = (   0.1428571   0.5773503   0.1445087), wk =   0.0612245
        k(   21) = (   0.1428571   0.5773503  -0.2890173), wk =   0.0306122
        k(   22) = (   0.2857143   0.4948717   0.0000000), wk =   0.0306122
        k(   23) = (   0.2857143   0.4948717   0.1445087), wk =   0.0612245
        k(   24) = (   0.2857143   0.4948717  -0.2890173), wk =   0.0306122
        k(   25) = (   0.0000000   0.0000000   0.0000000), wk =   0.0051020
        k(   26) = (   0.0000000   0.0000000   0.1445087), wk =   0.0102041
        k(   27) = (   0.0000000   0.0000000  -0.2890173), wk =   0.0051020
        k(   28) = (   0.0000000   0.1649572   0.0000000), wk =   0.0306122
        k(   29) = (   0.0000000   0.1649572   0.1445087), wk =   0.0612245
        k(   30) = (   0.0000000   0.1649572  -0.2890173), wk =   0.0306122
        k(   31) = (   0.0000000   0.3299144   0.0000000), wk =   0.0306122
        k(   32) = (   0.0000000   0.3299144   0.1445087), wk =   0.0612245
        k(   33) = (   0.0000000   0.3299144  -0.2890173), wk =   0.0306122
        k(   34) = (   0.0000000   0.4948717   0.0000000), wk =   0.0306122
        k(   35) = (   0.0000000   0.4948717   0.1445087), wk =   0.0612245
        k(   36) = (   0.0000000   0.4948717  -0.2890173), wk =   0.0306122
        k(   37) = (   0.1428571   0.2474358   0.0000000), wk =   0.0306122
        k(   38) = (   0.1428571   0.2474358   0.1445087), wk =   0.0612245
        k(   39) = (   0.1428571   0.2474358  -0.2890173), wk =   0.0306122
        k(   40) = (   0.1428571   0.4123930   0.0000000), wk =   0.0612245
        k(   41) = (   0.1428571   0.4123930   0.1445087), wk =   0.1224490
        k(   42) = (   0.1428571   0.4123930  -0.2890173), wk =   0.0612245
        k(   43) = (   0.1428571   0.5773503   0.0000000), wk =   0.0306122
        k(   44) = (   0.1428571   0.5773503   0.1445087), wk =   0.0612245
        k(   45) = (   0.1428571   0.5773503  -0.2890173), wk =   0.0306122
        k(   46) = (   0.2857143   0.4948717   0.0000000), wk =   0.0306122
        k(   47) = (   0.2857143   0.4948717   0.1445087), wk =   0.0612245
        k(   48) = (   0.2857143   0.4948717  -0.2890173), wk =   0.0306122

     Dense  grid:    16325 G-vectors     FFT dimensions: (  27,  27,  48)

     Smooth grid:    11755 G-vectors     FFT dimensions: (  25,  25,  45)

     Largest allocated arrays     est. size (Mb)     dimensions
        Kohn-Sham Wavefunctions         0.45 Mb     (    1485,   20)
        NL pseudopotentials             0.82 Mb     (    1485,   36)
        Each V/rho on FFT grid          1.07 Mb     (   34992,   2)
        Each G-vector array             0.12 Mb     (   16325)
        G-vector shells                 0.01 Mb     (     849)
     Largest temporary arrays     est. size (Mb)     dimensions
        Auxiliary wavefunctions         1.81 Mb     (    1485,   80)
        Each subspace H/S matrix        0.10 Mb     (      80,   80)
        Each <psi_i|beta_j> matrix      0.01 Mb     (      36,   20)
        Arrays for rho mixing           4.27 Mb     (   34992,    8)

     Check: negative/imaginary core charge=   -0.000312    0.000000

     Initial potential from superposition of free atoms

     starting charge   31.99912, renormalised to   32.00000
     Starting wfc are   26 randomized atomic wfcs

     total cpu time spent up to now is        6.5 secs

     Self-consistent Calculation

     iteration #  1     ecut=    50.00 Ry     beta=0.70
     Davidson diagonalization with overlap
     ethr =  1.00E-02,  avg # of iterations =  1.9

     negative rho (up, down):  0.000E+00 1.121E-03

     Magnetic moment per site:
     atom:    1    charge:   14.6211    magn:    5.9522    constr:    0.0000
     atom:    2    charge:   14.6211    magn:    5.9522    constr:    0.0000

     total cpu time spent up to now is       13.0 secs

     total energy              =    -657.95596684 Ry
     Harris-Foulkes estimate   =    -656.24341442 Ry
     estimated scf accuracy    <       2.83556205 Ry

     total magnetization       =     8.00 Bohr mag/cell
     absolute magnetization    =     8.29 Bohr mag/cell

     iteration #  2     ecut=    50.00 Ry     beta=0.70
     Davidson diagonalization with overlap
     ethr =  8.86E-03,  avg # of iterations =  1.6

     negative rho (up, down):  0.000E+00 1.065E-03

     Magnetic moment per site:
     atom:    1    charge:   14.8514    magn:    4.0446    constr:    0.0000
     atom:    2    charge:   14.8514    magn:    4.0446    constr:    0.0000

     total cpu time spent up to now is       18.6 secs

     total energy              =    -658.11151210 Ry
     Harris-Foulkes estimate   =    -658.17486385 Ry
     estimated scf accuracy    <       0.88934679 Ry

     total magnetization       =     6.44 Bohr mag/cell
     absolute magnetization    =     6.81 Bohr mag/cell

     iteration #  3     ecut=    50.00 Ry     beta=0.70
     Davidson diagonalization with overlap
     ethr =  2.78E-03,  avg # of iterations =  3.1

     negative rho (up, down):  0.000E+00 1.251E-03

     Magnetic moment per site:
     atom:    1    charge:   14.7360    magn:    2.9876    constr:    0.0000
     atom:    2    charge:   14.7360    magn:    2.9876    constr:    0.0000

     total cpu time spent up to now is       24.8 secs

     total energy              =    -658.15642656 Ry
     Harris-Foulkes estimate   =    -658.65824979 Ry
     estimated scf accuracy    <       1.43738582 Ry

     total magnetization       =     6.59 Bohr mag/cell
     absolute magnetization    =     6.91 Bohr mag/cell

     iteration #  4     ecut=    50.00 Ry     beta=0.70
     Davidson diagonalization with overlap
     ethr =  2.78E-03,  avg # of iterations =  2.7

     negative rho (up, down):  0.000E+00 1.100E-03

     Magnetic moment per site:
     atom:    1    charge:   14.7803    magn:    3.0960    constr:    0.0000
     atom:    2    charge:   14.7803    magn:    3.0960    constr:    0.0000

     total cpu time spent up to now is       30.7 secs

     total energy              =    -658.39467104 Ry
     Harris-Foulkes estimate   =    -658.39358705 Ry
     estimated scf accuracy    <       0.00420323 Ry

     total magnetization       =     5.96 Bohr mag/cell
     absolute magnetization    =     6.33 Bohr mag/cell

     iteration #  5     ecut=    50.00 Ry     beta=0.70
     Davidson diagonalization with overlap
     ethr =  1.31E-05,  avg # of iterations =  3.6

     negative rho (up, down):  0.000E+00 1.095E-03

     Magnetic moment per site:
     atom:    1    charge:   14.7782    magn:    3.0864    constr:    0.0000
     atom:    2    charge:   14.7782    magn:    3.0864    constr:    0.0000

     total cpu time spent up to now is       38.4 secs

     total energy              =    -658.40093310 Ry
     Harris-Foulkes estimate   =    -658.40012172 Ry
     estimated scf accuracy    <       0.00116198 Ry

     total magnetization       =     6.04 Bohr mag/cell
     absolute magnetization    =     6.36 Bohr mag/cell

     iteration #  6     ecut=    50.00 Ry     beta=0.70
     Davidson diagonalization with overlap
     ethr =  3.63E-06,  avg # of iterations =  1.9

     negative rho (up, down):  0.000E+00 1.040E-03

     Magnetic moment per site:
     atom:    1    charge:   14.7796    magn:    3.0738    constr:    0.0000
     atom:    2    charge:   14.7796    magn:    3.0738    constr:    0.0000

     total cpu time spent up to now is       43.6 secs

     total energy              =    -658.39911878 Ry
     Harris-Foulkes estimate   =    -658.40119666 Ry
     estimated scf accuracy    <       0.00063447 Ry

     total magnetization       =     6.04 Bohr mag/cell
     absolute magnetization    =     6.34 Bohr mag/cell

     iteration #  7     ecut=    50.00 Ry     beta=0.70
     Davidson diagonalization with overlap
     ethr =  1.98E-06,  avg # of iterations =  3.3

     negative rho (up, down):  0.000E+00 1.072E-03

     Magnetic moment per site:
     atom:    1    charge:   14.7786    magn:    3.0798    constr:    0.0000
     atom:    2    charge:   14.7786    magn:    3.0798    constr:    0.0000

     total cpu time spent up to now is       50.7 secs

     total energy              =    -658.40217007 Ry
     Harris-Foulkes estimate   =    -658.40028889 Ry
     estimated scf accuracy    <       0.00049371 Ry

     total magnetization       =     6.03 Bohr mag/cell
     absolute magnetization    =     6.30 Bohr mag/cell

     iteration #  8     ecut=    50.00 Ry     beta=0.70
     Davidson diagonalization with overlap
     ethr =  1.54E-06,  avg # of iterations =  2.3

     negative rho (up, down):  0.000E+00 1.071E-03

     Magnetic moment per site:
     atom:    1    charge:   14.7788    magn:    3.0793    constr:    0.0000
     atom:    2    charge:   14.7788    magn:    3.0793    constr:    0.0000

     total cpu time spent up to now is       56.6 secs

     total energy              =    -658.40231362 Ry
     Harris-Foulkes estimate   =    -658.40232809 Ry
     estimated scf accuracy    <       0.00022514 Ry

     total magnetization       =     6.03 Bohr mag/cell
     absolute magnetization    =     6.31 Bohr mag/cell

     iteration #  9     ecut=    50.00 Ry     beta=0.70
     Davidson diagonalization with overlap
     ethr =  7.04E-07,  avg # of iterations =  1.1

     negative rho (up, down):  0.000E+00 1.072E-03

     Magnetic moment per site:
     atom:    1    charge:   14.7787    magn:    3.0797    constr:    0.0000
     atom:    2    charge:   14.7787    magn:    3.0797    constr:    0.0000

     total cpu time spent up to now is       61.6 secs

     total energy              =    -658.40225280 Ry
     Harris-Foulkes estimate   =    -658.40232147 Ry
     estimated scf accuracy    <       0.00024445 Ry

     total magnetization       =     6.02 Bohr mag/cell
     absolute magnetization    =     6.31 Bohr mag/cell

     iteration # 10     ecut=    50.00 Ry     beta=0.70
     Davidson diagonalization with overlap
     ethr =  7.04E-07,  avg # of iterations =  1.0

     negative rho (up, down):  0.000E+00 1.059E-03

     Magnetic moment per site:
     atom:    1    charge:   14.7797    magn:    3.0692    constr:    0.0000
     atom:    2    charge:   14.7797    magn:    3.0692    constr:    0.0000

     total cpu time spent up to now is       66.5 secs

     total energy              =    -658.40248160 Ry
     Harris-Foulkes estimate   =    -658.40225476 Ry
     estimated scf accuracy    <       0.00029495 Ry

     total magnetization       =     6.02 Bohr mag/cell
     absolute magnetization    =     6.31 Bohr mag/cell

     iteration # 11     ecut=    50.00 Ry     beta=0.70
     Davidson diagonalization with overlap
     ethr =  7.04E-07,  avg # of iterations =  2.3

     negative rho (up, down):  0.000E+00 1.058E-03

     Magnetic moment per site:
     atom:    1    charge:   14.7798    magn:    3.0679    constr:    0.0000
     atom:    2    charge:   14.7798    magn:    3.0679    constr:    0.0000

     total cpu time spent up to now is       71.9 secs

     total energy              =    -658.40256299 Ry
     Harris-Foulkes estimate   =    -658.40255018 Ry
     estimated scf accuracy    <       0.00003435 Ry

     total magnetization       =     6.02 Bohr mag/cell
     absolute magnetization    =     6.29 Bohr mag/cell

     iteration # 12     ecut=    50.00 Ry     beta=0.70
     Davidson diagonalization with overlap
     ethr =  1.07E-07,  avg # of iterations =  2.1

     negative rho (up, down):  0.000E+00 1.056E-03

     Magnetic moment per site:
     atom:    1    charge:   14.7800    magn:    3.0665    constr:    0.0000
     atom:    2    charge:   14.7800    magn:    3.0665    constr:    0.0000

     total cpu time spent up to now is       78.5 secs

     total energy              =    -658.40257000 Ry
     Harris-Foulkes estimate   =    -658.40256767 Ry
     estimated scf accuracy    <       0.00001516 Ry

     total magnetization       =     6.02 Bohr mag/cell
     absolute magnetization    =     6.29 Bohr mag/cell

     iteration # 13     ecut=    50.00 Ry     beta=0.70
     Davidson diagonalization with overlap
     ethr =  4.74E-08,  avg # of iterations =  2.2

     negative rho (up, down):  0.000E+00 1.054E-03

     Magnetic moment per site:
     atom:    1    charge:   14.7802    magn:    3.0641    constr:    0.0000
     atom:    2    charge:   14.7802    magn:    3.0641    constr:    0.0000

     total cpu time spent up to now is       85.5 secs

     total energy              =    -658.40256124 Ry
     Harris-Foulkes estimate   =    -658.40257234 Ry
     estimated scf accuracy    <       0.00000593 Ry

     total magnetization       =     6.02 Bohr mag/cell
     absolute magnetization    =     6.29 Bohr mag/cell

     iteration # 14     ecut=    50.00 Ry     beta=0.70
     Davidson diagonalization with overlap
     ethr =  1.85E-08,  avg # of iterations =  3.1

     negative rho (up, down):  0.000E+00 1.055E-03

     Magnetic moment per site:
     atom:    1    charge:   14.7802    magn:    3.0647    constr:    0.0000
     atom:    2    charge:   14.7802    magn:    3.0647    constr:    0.0000

     total cpu time spent up to now is       91.6 secs

     total energy              =    -658.40257390 Ry
     Harris-Foulkes estimate   =    -658.40256542 Ry
     estimated scf accuracy    <       0.00000239 Ry

     total magnetization       =     6.02 Bohr mag/cell
     absolute magnetization    =     6.28 Bohr mag/cell

     iteration # 15     ecut=    50.00 Ry     beta=0.70
     Davidson diagonalization with overlap
     ethr =  7.45E-09,  avg # of iterations =  1.6

     negative rho (up, down):  0.000E+00 1.055E-03

     Magnetic moment per site:
     atom:    1    charge:   14.7802    magn:    3.0648    constr:    0.0000
     atom:    2    charge:   14.7802    magn:    3.0648    constr:    0.0000

     total cpu time spent up to now is       96.8 secs

     total energy              =    -658.40257470 Ry
     Harris-Foulkes estimate   =    -658.40257407 Ry
     estimated scf accuracy    <       0.00000046 Ry

     total magnetization       =     6.02 Bohr mag/cell
     absolute magnetization    =     6.28 Bohr mag/cell

     iteration # 16     ecut=    50.00 Ry     beta=0.70
     Davidson diagonalization with overlap
     ethr =  1.45E-09,  avg # of iterations =  2.6

     negative rho (up, down):  0.000E+00 1.055E-03

     Magnetic moment per site:
     atom:    1    charge:   14.7802    magn:    3.0649    constr:    0.0000
     atom:    2    charge:   14.7802    magn:    3.0649    constr:    0.0000

     total cpu time spent up to now is      102.2 secs

     total energy              =    -658.40257480 Ry
     Harris-Foulkes estimate   =    -658.40257475 Ry
     estimated scf accuracy    <       0.00000006 Ry

     total magnetization       =     6.02 Bohr mag/cell
     absolute magnetization    =     6.28 Bohr mag/cell

     iteration # 17     ecut=    50.00 Ry     beta=0.70
     Davidson diagonalization with overlap
     ethr =  1.73E-10,  avg # of iterations =  2.9

     negative rho (up, down):  0.000E+00 1.055E-03

     Magnetic moment per site:
     atom:    1    charge:   14.7802    magn:    3.0649    constr:    0.0000
     atom:    2    charge:   14.7802    magn:    3.0649    constr:    0.0000

     total cpu time spent up to now is      107.8 secs

     total energy              =    -658.40257482 Ry
     Harris-Foulkes estimate   =    -658.40257481 Ry
     estimated scf accuracy    <       0.00000002 Ry

     total magnetization       =     6.02 Bohr mag/cell
     absolute magnetization    =     6.28 Bohr mag/cell

     iteration # 18     ecut=    50.00 Ry     beta=0.70
     Davidson diagonalization with overlap
     ethr =  5.45E-11,  avg # of iterations =  1.7

     negative rho (up, down):  0.000E+00 1.055E-03

     Magnetic moment per site:
     atom:    1    charge:   14.7802    magn:    3.0648    constr:    0.0000
     atom:    2    charge:   14.7802    magn:    3.0648    constr:    0.0000

     total cpu time spent up to now is      112.8 secs

     total energy              =    -658.40257478 Ry
     Harris-Foulkes estimate   =    -658.40257482 Ry
     estimated scf accuracy    <       0.00000003 Ry

     total magnetization       =     6.02 Bohr mag/cell
     absolute magnetization    =     6.28 Bohr mag/cell

     iteration # 19     ecut=    50.00 Ry     beta=0.70
     Davidson diagonalization with overlap
     ethr =  5.45E-11,  avg # of iterations =  2.2

     negative rho (up, down):  0.000E+00 1.055E-03

     Magnetic moment per site:
     atom:    1    charge:   14.7802    magn:    3.0649    constr:    0.0000
     atom:    2    charge:   14.7802    magn:    3.0649    constr:    0.0000

     total cpu time spent up to now is      118.5 secs

     total energy              =    -658.40257481 Ry
     Harris-Foulkes estimate   =    -658.40257479 Ry
     estimated scf accuracy    <       0.00000002 Ry

     total magnetization       =     6.02 Bohr mag/cell
     absolute magnetization    =     6.28 Bohr mag/cell

     iteration # 20     ecut=    50.00 Ry     beta=0.70
     Davidson diagonalization with overlap
     ethr =  4.96E-11,  avg # of iterations =  1.8

     negative rho (up, down):  0.000E+00 1.055E-03

     Magnetic moment per site:
     atom:    1    charge:   14.7802    magn:    3.0649    constr:    0.0000
     atom:    2    charge:   14.7802    magn:    3.0649    constr:    0.0000

     total cpu time spent up to now is      123.6 secs

     End of self-consistent calculation

 ------ SPIN UP ------------


          k = 0.0000 0.0000 0.0000 (  1485 PWs)   bands (ev):

   -78.1147 -78.1076 -44.1815 -44.1815 -44.1747 -44.1747 -44.0687 -44.0109
     3.7654   6.7743   8.0137   8.0137   8.1305   8.1305   8.2174   8.2174
     8.2898   8.6544   8.6544  10.0050

          k = 0.0000 0.0000 0.1445 (  1455 PWs)   bands (ev):

   -78.1128 -78.1085 -44.1801 -44.1801 -44.1749 -44.1749 -44.0608 -44.0183
     4.1621   6.4317   7.9648   7.9648   8.0710   8.0710   8.2394   8.3486
     8.3486   8.6342   8.6342   8.7648

          k = 0.0000 0.0000-0.2890 (  1438 PWs)   bands (ev):

   -78.1104 -78.1104 -44.1773 -44.1773 -44.1773 -44.1773 -44.0395 -44.0395
     5.2446   5.2446   7.9786   7.9786   7.9786   7.9786   8.2068   8.2068
     8.5321   8.5321   8.5321   8.5321

          k = 0.0000 0.1650 0.0000 (  1455 PWs)   bands (ev):

   -78.1123 -78.1063 -44.1940 -44.1866 -44.1854 -44.1767 -44.0645 -44.0112
     4.2853   7.0834   7.8685   7.9084   8.0403   8.1307   8.1980   8.2000
     8.2998   8.4542   8.6764  11.1623

          k = 0.0000 0.1650 0.1445 (  1443 PWs)   bands (ev):

   -78.1111 -78.1071 -44.1930 -44.1877 -44.1835 -44.1775 -44.0569 -44.0188
     4.6648   6.7923   7.7708   7.8579   8.0538   8.0762   8.1741   8.2200
     8.3572   8.5325   8.6499   9.6716

          k = 0.0000 0.1650-0.2890 (  1444 PWs)   bands (ev):

   -78.1091 -78.1091 -44.1907 -44.1907 -44.1808 -44.1808 -44.0377 -44.0377
     5.6928   5.6928   7.7969   7.7969   8.0758   8.0758   8.1127   8.1127
     8.5381   8.5381   8.8247   8.8247

          k = 0.0000 0.3299 0.0000 (  1455 PWs)   bands (ev):

   -78.1085 -78.1039 -44.2228 -44.2157 -44.1934 -44.1824 -44.0544 -44.0146
     5.6627   7.2435   7.2641   7.8527   7.9619   7.9647   8.2052   8.6425
     8.6985   8.7036   8.9088  13.2681

          k = 0.0000 0.3299 0.1445 (  1455 PWs)   bands (ev):

   -78.1078 -78.1045 -44.2221 -44.2169 -44.1917 -44.1842 -44.0483 -44.0203
     5.9223   7.0423   7.3959   7.6828   8.0455   8.2119   8.2483   8.5089
     8.6764   8.7652   8.8880  10.8629

          k = 0.0000 0.3299-0.2890 (  1450 PWs)   bands (ev):

   -78.1061 -78.1061 -44.2196 -44.2196 -44.1882 -44.1882 -44.0337 -44.0337
     6.5211   6.5211   7.5784   7.5784   8.2564   8.2564   8.3532   8.3532
     8.7350   8.7350   9.2829   9.2829

          k = 0.0000 0.4949 0.0000 (  1454 PWs)   bands (ev):

   -78.1050 -78.1024 -44.2457 -44.2380 -44.1996 -44.1875 -44.0435 -44.0203
     6.7401   6.9411   6.9982   7.7935   7.8467   8.3786   8.6281   8.7023
     9.0223   9.0691  10.0820  13.2674

          k = 0.0000 0.4949 0.1445 (  1461 PWs)   bands (ev):

   -78.1048 -78.1028 -44.2453 -44.2398 -44.1981 -44.1897 -44.0394 -44.0234
     6.5969   6.9127   7.2678   7.4766   7.9575   8.5568   8.6523   9.0328
     9.0681   9.0737  10.0073  12.3627

          k = 0.0000 0.4949-0.2890 (  1462 PWs)   bands (ev):

   -78.1038 -78.1038 -44.2432 -44.2432 -44.1939 -44.1939 -44.0307 -44.0307
     6.6777   6.6777   7.4040   7.4040   8.2416   8.2416   9.0536   9.0536
     9.1352   9.1352  10.6973  10.6973

          k = 0.1429 0.2474 0.0000 (  1450 PWs)   bands (ev):

   -78.1093 -78.1046 -44.2117 -44.2079 -44.1910 -44.1834 -44.0579 -44.0132
     5.2554   7.4425   7.4669   7.6420   7.8750   7.9718   8.1423   8.5032
     8.6173   8.6638   8.8274  12.6524

          k = 0.1429 0.2474 0.1445 (  1447 PWs)   bands (ev):

   -78.1087 -78.1051 -44.2108 -44.2084 -44.1899 -44.1850 -44.0509 -44.0198
     5.5771   7.1573   7.5516   7.6564   7.9260   8.0012   8.1118   8.4204
     8.6815   8.6899   8.8365  10.5250

          k = 0.1429 0.2474-0.2890 (  1438 PWs)   bands (ev):

   -78.1068 -78.1068 -44.2095 -44.2095 -44.1879 -44.1879 -44.0344 -44.0344
     6.3905   6.3905   7.6639   7.6639   7.9588   7.9588   8.2322   8.2322
     8.7752   8.7752   9.1546   9.1546

          k = 0.1429 0.4124 0.0000 (  1458 PWs)   bands (ev):

   -78.1059 -78.1027 -44.2345 -44.2291 -44.2021 -44.1930 -44.0467 -44.0186
     6.6749   7.0781   7.2801   7.7229   7.7840   7.9464   8.2687   8.6400
     8.8280   9.1177   9.6853  14.5569

          k = 0.1429 0.4124 0.1445 (  1458 PWs)   bands (ev):

   -78.1054 -78.1031 -44.2340 -44.2301 -44.2013 -44.1946 -44.0418 -44.0222
     6.6890   7.0644   7.3690   7.6006   7.9137   8.1396   8.2966   8.4885
     8.9227   9.1878   9.7063  12.1106

          k = 0.1429 0.4124-0.2890 (  1454 PWs)   bands (ev):

   -78.1042 -78.1042 -44.2323 -44.2323 -44.1981 -44.1981 -44.0314 -44.0314
     6.8401   6.8401   7.5585   7.5585   8.0853   8.0853   8.3665   8.3665
     9.2054   9.2054  10.2903  10.2903

          k = 0.1429 0.5774 0.0000 (  1468 PWs)   bands (ev):

   -78.1041 -78.1023 -44.2454 -44.2379 -44.2083 -44.1973 -44.0391 -44.0236
     6.9583   7.0694   7.1201   7.7569   7.7582   8.2133   8.4794   8.6296
     9.0704   9.2407  11.5155  12.3483

          k = 0.1429 0.5774 0.1445 (  1454 PWs)   bands (ev):

   -78.1036 -78.1024 -44.2445 -44.2393 -44.2065 -44.1984 -44.0357 -44.0249
     6.7878   7.0971   7.4018   7.4648   7.7805   8.3934   8.5725   8.5839
     9.1027   9.3165  11.6860  12.3603

          k = 0.1429 0.5774-0.2890 (  1464 PWs)   bands (ev):

   -78.1031 -78.1031 -44.2424 -44.2424 -44.2027 -44.2027 -44.0302 -44.0302
     6.8590   6.8590   7.4903   7.4903   8.0388   8.0388   8.6943   8.6943
     9.2690   9.2690  12.1718  12.1718

          k = 0.2857 0.4949 0.0000 (  1450 PWs)   bands (ev):

   -78.1032 -78.1021 -44.2358 -44.2311 -44.2178 -44.2103 -44.0361 -44.0252
     7.0451   7.3971   7.5710   7.5903   7.6394   7.7706   8.2954   8.5525
     9.0398   9.2635  11.5819  14.6739

          k = 0.2857 0.4949 0.1445 (  1467 PWs)   bands (ev):

   -78.1033 -78.1025 -44.2351 -44.2321 -44.2180 -44.2124 -44.0339 -44.0264
     7.0905   7.2850   7.4945   7.5856   7.7631   7.9048   8.2836   8.4114
     9.1249   9.3048  11.8337  14.2095

          k = 0.2857 0.4949-0.2890 (  1472 PWs)   bands (ev):

   -78.1030 -78.1030 -44.2333 -44.2333 -44.2161 -44.2161 -44.0296 -44.0296
     7.1606   7.1606   7.5717   7.5717   7.8686   7.8686   8.2841   8.2841
     9.2877   9.2877  12.7113  12.7113

 ------ SPIN DOWN ----------


          k = 0.0000 0.0000 0.0000 (  1485 PWs)   bands (ev):

   -74.6298 -74.6220 -40.7428 -40.7428 -40.7349 -40.7349 -40.7315 -40.6623
     4.0883   7.8634  10.0563  10.1576  10.7806  10.7806  10.9449  10.9449
    11.9607  11.9607  12.5457  12.5457

          k = 0.0000 0.0000 0.1445 (  1455 PWs)   bands (ev):

   -74.6280 -74.6231 -40.7414 -40.7414 -40.7354 -40.7354 -40.7217 -40.6717
     4.4878   7.1060   9.7868   9.9677  10.7773  10.7773  10.8970  10.8970
    12.0760  12.0760  12.4868  12.4868

          k = 0.0000 0.0000-0.2890 (  1438 PWs)   bands (ev):

   -74.6254 -74.6254 -40.7383 -40.7383 -40.7383 -40.7383 -40.6966 -40.6966
     5.6083   5.6083   9.7860   9.7860  10.8129  10.8129  10.8129  10.8129
    12.3083  12.3083  12.3083  12.3083

          k = 0.0000 0.1650 0.0000 (  1455 PWs)   bands (ev):

   -74.6273 -74.6207 -40.7577 -40.7494 -40.7473 -40.7375 -40.7265 -40.6629
     4.6110   8.2531   9.9612  10.1116  10.6393  10.8120  11.0059  11.1521
    11.7606  11.8285  12.5825  13.2569

          k = 0.0000 0.1650 0.1445 (  1443 PWs)   bands (ev):

   -74.6262 -74.6215 -40.7572 -40.7509 -40.7454 -40.7385 -40.7167 -40.6719
     5.0007   7.5523   9.7209  10.0487  10.5890  10.7715  10.9950  11.1022
    11.9207  11.9722  12.4955  12.6763

          k = 0.0000 0.1650-0.2890 (  1444 PWs)   bands (ev):

   -74.6239 -74.6239 -40.7546 -40.7546 -40.7422 -40.7422 -40.6938 -40.6938
     6.0967   6.0967   9.8289   9.8289  10.6337  10.6337  11.0215  11.0215
    12.2587  12.2587  12.2727  12.2727

          k = 0.0000 0.3299 0.0000 (  1455 PWs)   bands (ev):

   -74.6230 -74.6179 -40.7918 -40.7835 -40.7569 -40.7443 -40.7143 -40.6671
     6.0711   9.0042   9.7409   9.9969  10.3562  11.0296  11.3648  11.5656
    11.5814  11.6529  12.6184  14.7189

          k = 0.0000 0.3299 0.1445 (  1455 PWs)   bands (ev):

   -74.6223 -74.6186 -40.7916 -40.7855 -40.7550 -40.7463 -40.7064 -40.6733
     6.4206   8.5739   9.6092  10.1128  10.2448  10.7538  11.4899  11.5974
    11.6790  11.8212  12.4796  13.0752

          k = 0.0000 0.3299-0.2890 (  1450 PWs)   bands (ev):

   -74.6204 -74.6204 -40.7893 -40.7893 -40.7508 -40.7508 -40.6887 -40.6887
     7.3889   7.3889   9.8699   9.8699  10.4041  10.4041  11.5223  11.5223
    12.1569  12.1569  12.2228  12.2228

          k = 0.0000 0.4949 0.0000 (  1454 PWs)   bands (ev):

   -74.6191 -74.6160 -40.8190 -40.8100 -40.7642 -40.7502 -40.7012 -40.6739
     7.9421   9.0785   9.6969   9.7598  10.4063  11.0286  11.4087  11.9442
    12.0659  12.1200  12.6250  14.3131

          k = 0.0000 0.4949 0.1445 (  1461 PWs)   bands (ev):

   -74.6187 -74.6165 -40.8191 -40.8125 -40.7624 -40.7526 -40.6959 -40.6770
     8.1345   8.9958   9.5696   9.9225  10.4029  11.1843  11.5503  11.8561
    12.0763  12.1008  12.4328  13.4557

          k = 0.0000 0.4949-0.2890 (  1462 PWs)   bands (ev):

   -74.6176 -74.6176 -40.8170 -40.8170 -40.7575 -40.7575 -40.6851 -40.6851
     8.5879   8.5879   9.7625   9.7625  10.8307  10.8307  11.8990  11.8990
    12.1525  12.1525  12.3256  12.3256

          k = 0.1429 0.2474 0.0000 (  1450 PWs)   bands (ev):

   -74.6241 -74.6187 -40.7786 -40.7745 -40.7541 -40.7455 -40.7183 -40.6655
     5.6083   8.8667   9.7942  10.0035  10.5816  10.6572  11.4144  11.4194
    11.5670  11.7119  12.5654  14.4076

          k = 0.1429 0.2474 0.1445 (  1447 PWs)   bands (ev):

   -74.6234 -74.6193 -40.7784 -40.7754 -40.7531 -40.7473 -40.7093 -40.6727
     5.9745   8.3221   9.6459  10.0737  10.3964  10.5794  11.3548  11.4854
    11.7400  11.8653  12.4467  12.9949

          k = 0.1429 0.2474-0.2890 (  1438 PWs)   bands (ev):

   -74.6212 -74.6212 -40.7773 -40.7773 -40.7506 -40.7506 -40.6897 -40.6897
     7.0038   7.0038   9.9004   9.9004  10.3579  10.3579  11.4051  11.4051
    12.1587  12.1587  12.2637  12.2637

          k = 0.1429 0.4124 0.0000 (  1458 PWs)   bands (ev):

   -74.6200 -74.6165 -40.8057 -40.7994 -40.7673 -40.7566 -40.7049 -40.6719
     7.3489   9.3154   9.7512   9.7654  10.4591  11.0960  11.1356  11.4093
    11.8728  12.2373  12.5322  15.4068

          k = 0.1429 0.4124 0.1445 (  1458 PWs)   bands (ev):

   -74.6195 -74.6170 -40.8056 -40.8011 -40.7664 -40.7585 -40.6985 -40.6756
     7.6384   9.1949   9.5758   9.9349  10.3099  10.7155  11.3966  11.5923
    12.0209  12.0960  12.4753  13.7400

          k = 0.1429 0.4124-0.2890 (  1454 PWs)   bands (ev):

   -74.6182 -74.6182 -40.8042 -40.8042 -40.7628 -40.7628 -40.6857 -40.6857
     8.3929   8.3929   9.8783   9.8783  10.2975  10.2975  11.6832  11.6832
    12.1109  12.1109  12.5996  12.5996

          k = 0.1429 0.5774 0.0000 (  1468 PWs)   bands (ev):

   -74.6179 -74.6159 -40.8185 -40.8096 -40.7744 -40.7615 -40.6960 -40.6777
     8.6722   9.1656   9.5765   9.8123  10.5546  10.9682  11.2274  11.8217
    11.8269  12.5169  13.0830  13.8929

          k = 0.1429 0.5774 0.1445 (  1454 PWs)   bands (ev):

   -74.6175 -74.6161 -40.8180 -40.8118 -40.7726 -40.7631 -40.6915 -40.6787
     8.7843   9.1717   9.6001   9.9475  10.3908  10.9055  11.4208  11.8466
    11.9158  12.2043  13.1572  13.7810

          k = 0.1429 0.5774-0.2890 (  1464 PWs)   bands (ev):

   -74.6169 -74.6169 -40.8160 -40.8160 -40.7683 -40.7683 -40.6841 -40.6841
     9.0148   9.0148   9.8474   9.8474  10.5737  10.5737  11.7439  11.7439
    11.9570  11.9570  13.4209  13.4209

          k = 0.2857 0.4949 0.0000 (  1450 PWs)   bands (ev):

   -74.6170 -74.6157 -40.8072 -40.8015 -40.7859 -40.7771 -40.6926 -40.6797
     8.8332   9.4368   9.5102   9.9734  10.8233  10.9353  11.0537  11.2589
    11.7321  12.4090  13.3933  15.6531

          k = 0.2857 0.4949 0.1445 (  1467 PWs)   bands (ev):

   -74.6170 -74.6161 -40.8066 -40.8032 -40.7863 -40.7796 -40.6891 -40.6803
     9.0229   9.5473   9.6113   9.9059  10.5188  10.5736  11.1061  11.5992
    11.9120  12.0681  13.6082  15.2621

          k = 0.2857 0.4949-0.2890 (  1472 PWs)   bands (ev):

   -74.6166 -74.6166 -40.8051 -40.8051 -40.7841 -40.7841 -40.6833 -40.6833
     9.4382   9.4382   9.9135   9.9135  10.1286  10.1286  11.5057  11.5057
    11.9267  11.9267  14.2090  14.2090

     the Fermi energy is    10.5705 ev

!    total energy              =    -658.40257482 Ry
     Harris-Foulkes estimate   =    -658.40257482 Ry
     estimated scf accuracy    <          1.4E-10 Ry

     total all-electron energy =     -5090.995646 Ry

     The total energy is the sum of the following terms:

     one-electron contribution =    -300.94733489 Ry
     hartree contribution      =     162.29372737 Ry
     xc contribution           =     -69.40576431 Ry
     ewald contribution        =    -298.06557968 Ry
     one-center paw contrib.   =    -152.27801528 Ry
     smearing contrib. (-TS)   =       0.00039197 Ry

     total magnetization       =     6.02 Bohr mag/cell
     absolute magnetization    =     6.28 Bohr mag/cell

     convergence has been achieved in  20 iterations

     Forces acting on atoms (Ry/au):


     negative rho (up, down):  0.000E+00 1.055E-03
     atom    1 type  1   force =     0.00000000    0.00000000    0.00000000
     atom    2 type  1   force =     0.00000000   -0.00000000    0.00000000

     Total force =     0.000000     Total SCF correction =     0.000000


     entering subroutine stress ...


     negative rho (up, down):  0.000E+00 1.055E-03
          total   stress  (Ry/bohr**3)                   (kbar)     P= -287.65
  -0.00203497   0.00000000   0.00000000       -299.35      0.00      0.00
   0.00000000  -0.00203497   0.00000000          0.00   -299.35      0.00
  -0.00000000  -0.00000000  -0.00179618         -0.00     -0.00   -264.23


     Writing output data file Fe_hcp.save

     init_run     :      4.44s CPU      5.74s WALL (       1 calls)
     electrons    :    116.44s CPU    117.12s WALL (       1 calls)
     forces       :      0.69s CPU      0.62s WALL (       1 calls)
     stress       :      1.99s CPU      2.11s WALL (       1 calls)

     Called by init_run:
     wfcinit      :      2.22s CPU      2.29s WALL (       1 calls)
     potinit      :      1.45s CPU      2.46s WALL (       1 calls)

     Called by electrons:
     c_bands      :     79.49s CPU     77.87s WALL (      20 calls)
     sum_band     :     14.78s CPU     15.22s WALL (      20 calls)
     v_of_rho     :      1.27s CPU      1.39s WALL (      21 calls)
     newd         :      1.59s CPU      1.75s WALL (      21 calls)
     mix_rho      :      0.22s CPU      0.32s WALL (      20 calls)

     Called by c_bands:
     init_us_2    :      1.19s CPU      1.27s WALL (    2064 calls)
     cegterg      :     75.99s CPU     74.13s WALL (     960 calls)

     Called by *egterg:
     h_psi        :     61.01s CPU     62.74s WALL (    3162 calls)
     s_psi        :      2.80s CPU      1.72s WALL (    3162 calls)
     g_psi        :      0.38s CPU      0.41s WALL (    2154 calls)
     cdiaghg      :      2.90s CPU      3.09s WALL (    3114 calls)

     Called by h_psi:
     add_vuspsi   :      3.13s CPU      1.94s WALL (    3162 calls)

     General routines
     calbec       :      4.42s CPU      2.64s WALL (    4218 calls)
     fft          :      0.72s CPU      0.78s WALL (     685 calls)
     ffts         :      0.06s CPU      0.06s WALL (      82 calls)
     fftw         :     59.06s CPU     63.39s WALL (  113412 calls)
     interpolate  :      0.16s CPU      0.18s WALL (      82 calls)
     davcio       :      0.00s CPU      0.02s WALL (      48 calls)


     PAW routines
     PAW_pot      :     20.48s CPU     22.95s WALL (      21 calls)
     PAW_symme    :      0.03s CPU      0.03s WALL (      41 calls)

     PWSCF        :  2m 4.16s CPU     2m 6.59s WALL


   This run was terminated on:  19:29:59  11May2015            

=------------------------------------------------------------------------------=
   JOB DONE.
=------------------------------------------------------------------------------=
