
     Program PWSCF v.5.1.2 starts on 11May2015 at 21:46:32 

     This program is part of the open-source Quantum ESPRESSO suite
     for quantum simulation of materials; please cite
         "P. Giannozzi et al., J. Phys.:Condens. Matter 21 395502 (2009);
          URL http://www.quantum-espresso.org", 
     in publications or presentations arising from this work. More details at
     http://www.quantum-espresso.org/quote

     Serial version
     Reading input from Fe_HCP_5.38_172_10_5.pw.in

     Current dimensions of program PWSCF are:
     Max number of different atomic species (ntypx) = 10
     Max number of k-points (npk) =  40000
     Max angular momentum in pseudopotentials (lmaxx) =  3
               file Fe.pbe-spn-kjpaw_psl.0.2.1.UPF: wavefunction(s)  3D renormalized

     G-vector sticks info
     --------------------
     sticks:   dense  smooth     PW     G-vecs:    dense   smooth      PW
     Sum         499     397    121                15521    11045    1919

     Generating pointlists ...
     new r_m :   0.4125 (alat units)  2.2193 (a.u.) for type    1


     bravais-lattice index     =            4
     lattice parameter (alat)  =       5.3800  a.u.
     unit-cell volume          =     231.9562 (a.u.)^3
     number of atoms/cell      =            2
     number of atomic types    =            1
     number of electrons       =        32.00
     number of Kohn-Sham states=           20
     kinetic-energy cutoff     =      50.0000  Ry
     charge density cutoff     =     250.0000  Ry
     convergence threshold     =      1.0E-08
     mixing beta               =       0.7000
     number of iterations used =            8  plain     mixing
     Exchange-correlation      =  SLA  PW   PBX  PBC ( 1  4  3  4 0 0)

     celldm(1)=   5.380000  celldm(2)=   0.000000  celldm(3)=   1.720000
     celldm(4)=   0.000000  celldm(5)=   0.000000  celldm(6)=   0.000000

     crystal axes: (cart. coord. in units of alat)
               a(1) = (   1.000000   0.000000   0.000000 )  
               a(2) = (  -0.500000   0.866025   0.000000 )  
               a(3) = (   0.000000   0.000000   1.720000 )  

     reciprocal axes: (cart. coord. in units 2 pi/alat)
               b(1) = (  1.000000  0.577350 -0.000000 )  
               b(2) = (  0.000000  1.154701  0.000000 )  
               b(3) = (  0.000000 -0.000000  0.581395 )  


     PseudoPot. # 1 for Fe read from file:
     ./Fe.pbe-spn-kjpaw_psl.0.2.1.UPF
     MD5 check sum: a0a08122d52b112de96d1da1d7dd020f
     Pseudo is Projector augmented-wave + core cor, Zval = 16.0
     Generated using "atomic" code by A. Dal Corso  v.5.0.2 svn rev. 9415
     Shape of augmentation charge: PSQ
     Using radial grid of 1191 points,  6 beta functions with: 
                l(1) =   0
                l(2) =   0
                l(3) =   1
                l(4) =   1
                l(5) =   2
                l(6) =   2
     Q(r) pseudized with 0 coefficients 


     atomic species   valence    mass     pseudopotential
        Fe            16.00    55.85000     Fe( 1.00)

     Starting magnetic structure 
     atomic species   magnetization
        Fe           0.700

     24 Sym. Ops., with inversion, found (12 have fractional translation)



   Cartesian axes

     site n.     atom                  positions (alat units)
         1           Fe  tau(   1) = (  -0.0000000   0.5773503   0.4300000  )
         2           Fe  tau(   2) = (   0.5000000   0.2886751   1.2900000  )

     number of k points=    84  Marzari-Vanderbilt smearing, width (Ry)=  0.0250
                       cart. coord. in units 2pi/alat
        k(    1) = (   0.0000000   0.0000000   0.0000000), wk =   0.0020000
        k(    2) = (   0.0000000   0.0000000   0.1162791), wk =   0.0040000
        k(    3) = (   0.0000000   0.0000000   0.2325581), wk =   0.0040000
        k(    4) = (   0.0000000   0.1154701   0.0000000), wk =   0.0120000
        k(    5) = (   0.0000000   0.1154701   0.1162791), wk =   0.0240000
        k(    6) = (   0.0000000   0.1154701   0.2325581), wk =   0.0240000
        k(    7) = (   0.0000000   0.2309401   0.0000000), wk =   0.0120000
        k(    8) = (   0.0000000   0.2309401   0.1162791), wk =   0.0240000
        k(    9) = (   0.0000000   0.2309401   0.2325581), wk =   0.0240000
        k(   10) = (   0.0000000   0.3464102   0.0000000), wk =   0.0120000
        k(   11) = (   0.0000000   0.3464102   0.1162791), wk =   0.0240000
        k(   12) = (   0.0000000   0.3464102   0.2325581), wk =   0.0240000
        k(   13) = (   0.0000000   0.4618802   0.0000000), wk =   0.0120000
        k(   14) = (   0.0000000   0.4618802   0.1162791), wk =   0.0240000
        k(   15) = (   0.0000000   0.4618802   0.2325581), wk =   0.0240000
        k(   16) = (   0.0000000  -0.5773503   0.0000000), wk =   0.0060000
        k(   17) = (   0.0000000  -0.5773503   0.1162791), wk =   0.0120000
        k(   18) = (   0.0000000  -0.5773503   0.2325581), wk =   0.0120000
        k(   19) = (   0.1000000   0.1732051   0.0000000), wk =   0.0120000
        k(   20) = (   0.1000000   0.1732051   0.1162791), wk =   0.0240000
        k(   21) = (   0.1000000   0.1732051   0.2325581), wk =   0.0240000
        k(   22) = (   0.1000000   0.2886751   0.0000000), wk =   0.0240000
        k(   23) = (   0.1000000   0.2886751   0.1162791), wk =   0.0480000
        k(   24) = (   0.1000000   0.2886751   0.2325581), wk =   0.0480000
        k(   25) = (   0.1000000   0.4041452   0.0000000), wk =   0.0240000
        k(   26) = (   0.1000000   0.4041452   0.1162791), wk =   0.0480000
        k(   27) = (   0.1000000   0.4041452   0.2325581), wk =   0.0480000
        k(   28) = (   0.1000000   0.5196152   0.0000000), wk =   0.0240000
        k(   29) = (   0.1000000   0.5196152   0.1162791), wk =   0.0480000
        k(   30) = (   0.1000000   0.5196152   0.2325581), wk =   0.0480000
        k(   31) = (   0.2000000   0.3464102   0.0000000), wk =   0.0120000
        k(   32) = (   0.2000000   0.3464102   0.1162791), wk =   0.0240000
        k(   33) = (   0.2000000   0.3464102   0.2325581), wk =   0.0240000
        k(   34) = (   0.2000000   0.4618802   0.0000000), wk =   0.0240000
        k(   35) = (   0.2000000   0.4618802   0.1162791), wk =   0.0480000
        k(   36) = (   0.2000000   0.4618802   0.2325581), wk =   0.0480000
        k(   37) = (   0.2000000   0.5773503   0.0000000), wk =   0.0120000
        k(   38) = (   0.2000000   0.5773503   0.1162791), wk =   0.0240000
        k(   39) = (   0.2000000   0.5773503   0.2325581), wk =   0.0240000
        k(   40) = (   0.3000000   0.5196152   0.0000000), wk =   0.0120000
        k(   41) = (   0.3000000   0.5196152   0.1162791), wk =   0.0240000
        k(   42) = (   0.3000000   0.5196152   0.2325581), wk =   0.0240000
        k(   43) = (   0.0000000   0.0000000   0.0000000), wk =   0.0020000
        k(   44) = (   0.0000000   0.0000000   0.1162791), wk =   0.0040000
        k(   45) = (   0.0000000   0.0000000   0.2325581), wk =   0.0040000
        k(   46) = (   0.0000000   0.1154701   0.0000000), wk =   0.0120000
        k(   47) = (   0.0000000   0.1154701   0.1162791), wk =   0.0240000
        k(   48) = (   0.0000000   0.1154701   0.2325581), wk =   0.0240000
        k(   49) = (   0.0000000   0.2309401   0.0000000), wk =   0.0120000
        k(   50) = (   0.0000000   0.2309401   0.1162791), wk =   0.0240000
        k(   51) = (   0.0000000   0.2309401   0.2325581), wk =   0.0240000
        k(   52) = (   0.0000000   0.3464102   0.0000000), wk =   0.0120000
        k(   53) = (   0.0000000   0.3464102   0.1162791), wk =   0.0240000
        k(   54) = (   0.0000000   0.3464102   0.2325581), wk =   0.0240000
        k(   55) = (   0.0000000   0.4618802   0.0000000), wk =   0.0120000
        k(   56) = (   0.0000000   0.4618802   0.1162791), wk =   0.0240000
        k(   57) = (   0.0000000   0.4618802   0.2325581), wk =   0.0240000
        k(   58) = (   0.0000000  -0.5773503   0.0000000), wk =   0.0060000
        k(   59) = (   0.0000000  -0.5773503   0.1162791), wk =   0.0120000
        k(   60) = (   0.0000000  -0.5773503   0.2325581), wk =   0.0120000
        k(   61) = (   0.1000000   0.1732051   0.0000000), wk =   0.0120000
        k(   62) = (   0.1000000   0.1732051   0.1162791), wk =   0.0240000
        k(   63) = (   0.1000000   0.1732051   0.2325581), wk =   0.0240000
        k(   64) = (   0.1000000   0.2886751   0.0000000), wk =   0.0240000
        k(   65) = (   0.1000000   0.2886751   0.1162791), wk =   0.0480000
        k(   66) = (   0.1000000   0.2886751   0.2325581), wk =   0.0480000
        k(   67) = (   0.1000000   0.4041452   0.0000000), wk =   0.0240000
        k(   68) = (   0.1000000   0.4041452   0.1162791), wk =   0.0480000
        k(   69) = (   0.1000000   0.4041452   0.2325581), wk =   0.0480000
        k(   70) = (   0.1000000   0.5196152   0.0000000), wk =   0.0240000
        k(   71) = (   0.1000000   0.5196152   0.1162791), wk =   0.0480000
        k(   72) = (   0.1000000   0.5196152   0.2325581), wk =   0.0480000
        k(   73) = (   0.2000000   0.3464102   0.0000000), wk =   0.0120000
        k(   74) = (   0.2000000   0.3464102   0.1162791), wk =   0.0240000
        k(   75) = (   0.2000000   0.3464102   0.2325581), wk =   0.0240000
        k(   76) = (   0.2000000   0.4618802   0.0000000), wk =   0.0240000
        k(   77) = (   0.2000000   0.4618802   0.1162791), wk =   0.0480000
        k(   78) = (   0.2000000   0.4618802   0.2325581), wk =   0.0480000
        k(   79) = (   0.2000000   0.5773503   0.0000000), wk =   0.0120000
        k(   80) = (   0.2000000   0.5773503   0.1162791), wk =   0.0240000
        k(   81) = (   0.2000000   0.5773503   0.2325581), wk =   0.0240000
        k(   82) = (   0.3000000   0.5196152   0.0000000), wk =   0.0120000
        k(   83) = (   0.3000000   0.5196152   0.1162791), wk =   0.0240000
        k(   84) = (   0.3000000   0.5196152   0.2325581), wk =   0.0240000

     Dense  grid:    15521 G-vectors     FFT dimensions: (  27,  27,  48)

     Smooth grid:    11045 G-vectors     FFT dimensions: (  25,  25,  45)

     Largest allocated arrays     est. size (Mb)     dimensions
        Kohn-Sham Wavefunctions         0.43 Mb     (    1408,   20)
        NL pseudopotentials             0.77 Mb     (    1408,   36)
        Each V/rho on FFT grid          1.07 Mb     (   34992,   2)
        Each G-vector array             0.12 Mb     (   15521)
        G-vector shells                 0.01 Mb     (     813)
     Largest temporary arrays     est. size (Mb)     dimensions
        Auxiliary wavefunctions         1.72 Mb     (    1408,   80)
        Each subspace H/S matrix        0.10 Mb     (      80,   80)
        Each <psi_i|beta_j> matrix      0.01 Mb     (      36,   20)
        Arrays for rho mixing           4.27 Mb     (   34992,    8)

     Check: negative/imaginary core charge=   -0.000327    0.000000

     Initial potential from superposition of free atoms

     starting charge   31.99912, renormalised to   32.00000
     Starting wfc are   26 randomized atomic wfcs

     total cpu time spent up to now is        5.4 secs

     Self-consistent Calculation

     iteration #  1     ecut=    50.00 Ry     beta=0.70
     Davidson diagonalization with overlap
     ethr =  1.00E-02,  avg # of iterations =  2.0

     negative rho (up, down):  0.000E+00 1.042E-03

     Magnetic moment per site:
     atom:    1    charge:   14.6013    magn:    5.9348    constr:    0.0000
     atom:    2    charge:   14.6013    magn:    5.9348    constr:    0.0000

     total cpu time spent up to now is       13.6 secs

     total energy              =    -657.97237543 Ry
     Harris-Foulkes estimate   =    -656.24687660 Ry
     estimated scf accuracy    <       2.84771059 Ry

     total magnetization       =     8.00 Bohr mag/cell
     absolute magnetization    =     8.23 Bohr mag/cell

     iteration #  2     ecut=    50.00 Ry     beta=0.70
     Davidson diagonalization with overlap
     ethr =  8.90E-03,  avg # of iterations =  1.6

     negative rho (up, down):  0.000E+00 1.025E-03

     Magnetic moment per site:
     atom:    1    charge:   14.8241    magn:    3.9918    constr:    0.0000
     atom:    2    charge:   14.8241    magn:    3.9918    constr:    0.0000

     total cpu time spent up to now is       21.3 secs

     total energy              =    -658.16127148 Ry
     Harris-Foulkes estimate   =    -658.18600391 Ry
     estimated scf accuracy    <       0.81473216 Ry

     total magnetization       =     6.57 Bohr mag/cell
     absolute magnetization    =     6.85 Bohr mag/cell

     iteration #  3     ecut=    50.00 Ry     beta=0.70
     Davidson diagonalization with overlap
     ethr =  2.55E-03,  avg # of iterations =  3.1

     negative rho (up, down):  0.000E+00 1.199E-03

     Magnetic moment per site:
     atom:    1    charge:   14.7104    magn:    3.0398    constr:    0.0000
     atom:    2    charge:   14.7104    magn:    3.0398    constr:    0.0000

     total cpu time spent up to now is       30.7 secs

     total energy              =    -658.19215771 Ry
     Harris-Foulkes estimate   =    -658.65366665 Ry
     estimated scf accuracy    <       1.27933093 Ry

     total magnetization       =     6.64 Bohr mag/cell
     absolute magnetization    =     6.90 Bohr mag/cell

     iteration #  4     ecut=    50.00 Ry     beta=0.70
     Davidson diagonalization with overlap
     ethr =  2.55E-03,  avg # of iterations =  2.7

     negative rho (up, down):  0.000E+00 9.662E-04

     Magnetic moment per site:
     atom:    1    charge:   14.7711    magn:    2.9452    constr:    0.0000
     atom:    2    charge:   14.7711    magn:    2.9452    constr:    0.0000

     total cpu time spent up to now is       39.7 secs

     total energy              =    -658.41284470 Ry
     Harris-Foulkes estimate   =    -658.41329236 Ry
     estimated scf accuracy    <       0.00716297 Ry

     total magnetization       =     5.79 Bohr mag/cell
     absolute magnetization    =     6.18 Bohr mag/cell

     iteration #  5     ecut=    50.00 Ry     beta=0.70
     Davidson diagonalization with overlap
     ethr =  2.24E-05,  avg # of iterations =  3.3

     negative rho (up, down):  0.000E+00 9.764E-04

     Magnetic moment per site:
     atom:    1    charge:   14.7592    magn:    2.9600    constr:    0.0000
     atom:    2    charge:   14.7592    magn:    2.9600    constr:    0.0000

     total cpu time spent up to now is       51.3 secs

     total energy              =    -658.42020687 Ry
     Harris-Foulkes estimate   =    -658.41923195 Ry
     estimated scf accuracy    <       0.00082437 Ry

     total magnetization       =     5.76 Bohr mag/cell
     absolute magnetization    =     6.13 Bohr mag/cell

     iteration #  6     ecut=    50.00 Ry     beta=0.70
     Davidson diagonalization with overlap
     ethr =  2.58E-06,  avg # of iterations =  2.0

     negative rho (up, down):  0.000E+00 9.805E-04

     Magnetic moment per site:
     atom:    1    charge:   14.7592    magn:    2.9628    constr:    0.0000
     atom:    2    charge:   14.7592    magn:    2.9628    constr:    0.0000

     total cpu time spent up to now is       59.2 secs

     total energy              =    -658.42004780 Ry
     Harris-Foulkes estimate   =    -658.42045993 Ry
     estimated scf accuracy    <       0.00055927 Ry

     total magnetization       =     5.75 Bohr mag/cell
     absolute magnetization    =     6.11 Bohr mag/cell

     iteration #  7     ecut=    50.00 Ry     beta=0.70
     Davidson diagonalization with overlap
     ethr =  1.75E-06,  avg # of iterations =  1.3

     negative rho (up, down):  0.000E+00 9.445E-04

     Magnetic moment per site:
     atom:    1    charge:   14.7567    magn:    2.9545    constr:    0.0000
     atom:    2    charge:   14.7567    magn:    2.9545    constr:    0.0000

     total cpu time spent up to now is       66.8 secs

     total energy              =    -658.42117588 Ry
     Harris-Foulkes estimate   =    -658.42007137 Ry
     estimated scf accuracy    <       0.00106118 Ry

     total magnetization       =     5.75 Bohr mag/cell
     absolute magnetization    =     6.11 Bohr mag/cell

     iteration #  8     ecut=    50.00 Ry     beta=0.70
     Davidson diagonalization with overlap
     ethr =  1.75E-06,  avg # of iterations =  2.5

     negative rho (up, down):  0.000E+00 9.472E-04

     Magnetic moment per site:
     atom:    1    charge:   14.7589    magn:    2.9536    constr:    0.0000
     atom:    2    charge:   14.7589    magn:    2.9536    constr:    0.0000

     total cpu time spent up to now is       75.8 secs

     total energy              =    -658.42140647 Ry
     Harris-Foulkes estimate   =    -658.42154117 Ry
     estimated scf accuracy    <       0.00023887 Ry

     total magnetization       =     5.73 Bohr mag/cell
     absolute magnetization    =     6.08 Bohr mag/cell

     iteration #  9     ecut=    50.00 Ry     beta=0.70
     Davidson diagonalization with overlap
     ethr =  7.46E-07,  avg # of iterations =  1.5

     negative rho (up, down):  0.000E+00 9.425E-04

     Magnetic moment per site:
     atom:    1    charge:   14.7596    magn:    2.9470    constr:    0.0000
     atom:    2    charge:   14.7596    magn:    2.9470    constr:    0.0000

     total cpu time spent up to now is       83.8 secs

     total energy              =    -658.42167824 Ry
     Harris-Foulkes estimate   =    -658.42141819 Ry
     estimated scf accuracy    <       0.00044480 Ry

     total magnetization       =     5.73 Bohr mag/cell
     absolute magnetization    =     6.08 Bohr mag/cell

     iteration # 10     ecut=    50.00 Ry     beta=0.70
     Davidson diagonalization with overlap
     ethr =  7.46E-07,  avg # of iterations =  1.8

     negative rho (up, down):  0.000E+00 9.366E-04

     Magnetic moment per site:
     atom:    1    charge:   14.7601    magn:    2.9410    constr:    0.0000
     atom:    2    charge:   14.7601    magn:    2.9410    constr:    0.0000

     total cpu time spent up to now is       91.8 secs

     total energy              =    -658.42185646 Ry
     Harris-Foulkes estimate   =    -658.42171743 Ry
     estimated scf accuracy    <       0.00023104 Ry

     total magnetization       =     5.73 Bohr mag/cell
     absolute magnetization    =     6.07 Bohr mag/cell

     iteration # 11     ecut=    50.00 Ry     beta=0.70
     Davidson diagonalization with overlap
     ethr =  7.22E-07,  avg # of iterations =  1.8

     negative rho (up, down):  0.000E+00 9.282E-04

     Magnetic moment per site:
     atom:    1    charge:   14.7610    magn:    2.9322    constr:    0.0000
     atom:    2    charge:   14.7610    magn:    2.9322    constr:    0.0000

     total cpu time spent up to now is       99.7 secs

     total energy              =    -658.42193164 Ry
     Harris-Foulkes estimate   =    -658.42188626 Ry
     estimated scf accuracy    <       0.00009659 Ry

     total magnetization       =     5.72 Bohr mag/cell
     absolute magnetization    =     6.06 Bohr mag/cell

     iteration # 12     ecut=    50.00 Ry     beta=0.70
     Davidson diagonalization with overlap
     ethr =  3.02E-07,  avg # of iterations =  2.6

     negative rho (up, down):  0.000E+00 9.216E-04

     Magnetic moment per site:
     atom:    1    charge:   14.7619    magn:    2.9249    constr:    0.0000
     atom:    2    charge:   14.7619    magn:    2.9249    constr:    0.0000

     total cpu time spent up to now is      108.1 secs

     total energy              =    -658.42188282 Ry
     Harris-Foulkes estimate   =    -658.42197260 Ry
     estimated scf accuracy    <       0.00000498 Ry

     total magnetization       =     5.72 Bohr mag/cell
     absolute magnetization    =     6.04 Bohr mag/cell

     iteration # 13     ecut=    50.00 Ry     beta=0.70
     Davidson diagonalization with overlap
     ethr =  1.56E-08,  avg # of iterations =  4.2

     negative rho (up, down):  0.000E+00 9.257E-04

     Magnetic moment per site:
     atom:    1    charge:   14.7612    magn:    2.9308    constr:    0.0000
     atom:    2    charge:   14.7612    magn:    2.9308    constr:    0.0000

     total cpu time spent up to now is      120.6 secs

     total energy              =    -658.42199642 Ry
     Harris-Foulkes estimate   =    -658.42191672 Ry
     estimated scf accuracy    <       0.00001991 Ry

     total magnetization       =     5.71 Bohr mag/cell
     absolute magnetization    =     6.03 Bohr mag/cell

     iteration # 14     ecut=    50.00 Ry     beta=0.70
     Davidson diagonalization with overlap
     ethr =  1.56E-08,  avg # of iterations =  2.9

     negative rho (up, down):  0.000E+00 9.256E-04

     Magnetic moment per site:
     atom:    1    charge:   14.7612    magn:    2.9307    constr:    0.0000
     atom:    2    charge:   14.7612    magn:    2.9307    constr:    0.0000

     total cpu time spent up to now is      130.8 secs

     total energy              =    -658.42200466 Ry
     Harris-Foulkes estimate   =    -658.42200488 Ry
     estimated scf accuracy    <       0.00000574 Ry

     total magnetization       =     5.72 Bohr mag/cell
     absolute magnetization    =     6.04 Bohr mag/cell

     iteration # 15     ecut=    50.00 Ry     beta=0.70
     Davidson diagonalization with overlap
     ethr =  1.56E-08,  avg # of iterations =  1.0

     negative rho (up, down):  0.000E+00 9.252E-04

     Magnetic moment per site:
     atom:    1    charge:   14.7613    magn:    2.9301    constr:    0.0000
     atom:    2    charge:   14.7613    magn:    2.9301    constr:    0.0000

     total cpu time spent up to now is      138.3 secs

     total energy              =    -658.42200713 Ry
     Harris-Foulkes estimate   =    -658.42200471 Ry
     estimated scf accuracy    <       0.00000563 Ry

     total magnetization       =     5.72 Bohr mag/cell
     absolute magnetization    =     6.04 Bohr mag/cell

     iteration # 16     ecut=    50.00 Ry     beta=0.70
     Davidson diagonalization with overlap
     ethr =  1.56E-08,  avg # of iterations =  1.1

     negative rho (up, down):  0.000E+00 9.248E-04

     Magnetic moment per site:
     atom:    1    charge:   14.7613    magn:    2.9298    constr:    0.0000
     atom:    2    charge:   14.7613    magn:    2.9298    constr:    0.0000

     total cpu time spent up to now is      145.8 secs

     total energy              =    -658.42200833 Ry
     Harris-Foulkes estimate   =    -658.42200727 Ry
     estimated scf accuracy    <       0.00000349 Ry

     total magnetization       =     5.71 Bohr mag/cell
     absolute magnetization    =     6.04 Bohr mag/cell

     iteration # 17     ecut=    50.00 Ry     beta=0.70
     Davidson diagonalization with overlap
     ethr =  1.09E-08,  avg # of iterations =  1.1

     negative rho (up, down):  0.000E+00 9.226E-04

     Magnetic moment per site:
     atom:    1    charge:   14.7616    magn:    2.9271    constr:    0.0000
     atom:    2    charge:   14.7616    magn:    2.9271    constr:    0.0000

     total cpu time spent up to now is      153.2 secs

     total energy              =    -658.42200479 Ry
     Harris-Foulkes estimate   =    -658.42200840 Ry
     estimated scf accuracy    <       0.00000243 Ry

     total magnetization       =     5.71 Bohr mag/cell
     absolute magnetization    =     6.04 Bohr mag/cell

     iteration # 18     ecut=    50.00 Ry     beta=0.70
     Davidson diagonalization with overlap
     ethr =  7.60E-09,  avg # of iterations =  2.8

     negative rho (up, down):  0.000E+00 9.234E-04

     Magnetic moment per site:
     atom:    1    charge:   14.7615    magn:    2.9282    constr:    0.0000
     atom:    2    charge:   14.7615    magn:    2.9282    constr:    0.0000

     total cpu time spent up to now is      162.9 secs

     total energy              =    -658.42201086 Ry
     Harris-Foulkes estimate   =    -658.42200751 Ry
     estimated scf accuracy    <       0.00000132 Ry

     total magnetization       =     5.71 Bohr mag/cell
     absolute magnetization    =     6.03 Bohr mag/cell

     iteration # 19     ecut=    50.00 Ry     beta=0.70
     Davidson diagonalization with overlap
     ethr =  4.12E-09,  avg # of iterations =  2.1

     negative rho (up, down):  0.000E+00 9.231E-04

     Magnetic moment per site:
     atom:    1    charge:   14.7615    magn:    2.9278    constr:    0.0000
     atom:    2    charge:   14.7615    magn:    2.9278    constr:    0.0000

     total cpu time spent up to now is      171.2 secs

     total energy              =    -658.42201113 Ry
     Harris-Foulkes estimate   =    -658.42201121 Ry
     estimated scf accuracy    <       0.00000005 Ry

     total magnetization       =     5.71 Bohr mag/cell
     absolute magnetization    =     6.03 Bohr mag/cell

     iteration # 20     ecut=    50.00 Ry     beta=0.70
     Davidson diagonalization with overlap
     ethr =  1.70E-10,  avg # of iterations =  3.2

     negative rho (up, down):  0.000E+00 9.232E-04

     Magnetic moment per site:
     atom:    1    charge:   14.7615    magn:    2.9279    constr:    0.0000
     atom:    2    charge:   14.7615    magn:    2.9279    constr:    0.0000

     total cpu time spent up to now is      181.2 secs

     total energy              =    -658.42201128 Ry
     Harris-Foulkes estimate   =    -658.42201120 Ry
     estimated scf accuracy    <       0.00000003 Ry

     total magnetization       =     5.71 Bohr mag/cell
     absolute magnetization    =     6.03 Bohr mag/cell

     iteration # 21     ecut=    50.00 Ry     beta=0.70
     Davidson diagonalization with overlap
     ethr =  8.27E-11,  avg # of iterations =  2.0

     negative rho (up, down):  0.000E+00 9.232E-04

     Magnetic moment per site:
     atom:    1    charge:   14.7615    magn:    2.9279    constr:    0.0000
     atom:    2    charge:   14.7615    magn:    2.9279    constr:    0.0000

     total cpu time spent up to now is      189.2 secs

     End of self-consistent calculation

 ------ SPIN UP ------------


          k = 0.0000 0.0000 0.0000 (  1353 PWs)   bands (ev):

   -77.2851 -77.2775 -43.3483 -43.3483 -43.3384 -43.3384 -43.2536 -43.1775
     4.2941   7.4667   8.8246   8.8246   8.9567   8.9567   8.9986   8.9986
     9.1018   9.4860   9.4860  10.7116

          k = 0.0000 0.0000 0.1163 (  1359 PWs)   bands (ev):

   -77.2848 -77.2780 -43.3467 -43.3467 -43.3393 -43.3393 -43.2464 -43.1869
     4.5591   7.2502   8.7708   8.7708   8.9075   8.9075   9.0606   9.1125
     9.1125   9.4773   9.4773   9.7831

          k = 0.0000 0.0000 0.2326 (  1371 PWs)   bands (ev):

   -77.2829 -77.2800 -43.3445 -43.3445 -43.3420 -43.3420 -43.2280 -43.2061
     5.3189   6.4044   8.7531   8.7531   8.8126   8.8126   8.9842   9.0637
     9.2870   9.2870   9.4191   9.4191

          k = 0.0000 0.1155 0.0000 (  1365 PWs)   bands (ev):

   -77.2846 -77.2767 -43.3560 -43.3503 -43.3468 -43.3401 -43.2513 -43.1793
     4.5581   7.6376   8.7275   8.8630   8.9035   8.9245   8.9484   9.0484
     9.0922   9.1975   9.5006  11.4318

          k = 0.0000 0.1155 0.1163 (  1373 PWs)   bands (ev):

   -77.2840 -77.2774 -43.3550 -43.3495 -43.3478 -43.3412 -43.2442 -43.1870
     4.8187   7.4375   8.6922   8.7446   8.8350   8.9250   8.9874   9.0646
     9.1111   9.2482   9.4890  10.4518

          k = 0.0000 0.1155 0.2326 (  1380 PWs)   bands (ev):

   -77.2821 -77.2794 -43.3527 -43.3499 -43.3468 -43.3440 -43.2266 -43.2052
     5.5642   6.6207   8.6312   8.6689   8.8219   8.8892   8.9035   8.9622
     9.2877   9.4122   9.4246   9.7063

          k = 0.0000 0.2309 0.0000 (  1379 PWs)   bands (ev):

   -77.2820 -77.2751 -43.3763 -43.3675 -43.3564 -43.3445 -43.2442 -43.1820
     5.3166   7.9747   8.3360   8.6046   8.8125   8.8314   8.8727   9.1971
     9.2962   9.4374   9.5251  12.7745

          k = 0.0000 0.2309 0.1163 (  1383 PWs)   bands (ev):

   -77.2813 -77.2758 -43.3757 -43.3682 -43.3556 -43.3457 -43.2379 -43.1877
     5.5575   7.8134   8.3055   8.5820   8.7754   8.8545   8.9308   9.1961
     9.2727   9.4663   9.5220  11.3435

          k = 0.0000 0.2309 0.2326 (  1374 PWs)   bands (ev):

   -77.2795 -77.2774 -43.3735 -43.3704 -43.3521 -43.3486 -43.2223 -43.2032
     6.2313   7.1324   8.3922   8.5199   8.8113   8.8972   8.9331   9.0643
     9.3689   9.4719   9.6424  10.1627

          k = 0.0000 0.3464 0.0000 (  1372 PWs)   bands (ev):

   -77.2782 -77.2731 -43.4009 -43.3909 -43.3633 -43.3500 -43.2342 -43.1856
     6.4153   7.9013   7.9471   8.6391   8.7025   8.7035   9.0563   9.5398
     9.5571   9.6218   9.8511  14.4094

          k = 0.0000 0.3464 0.1163 (  1383 PWs)   bands (ev):

   -77.2779 -77.2737 -43.4007 -43.3929 -43.3624 -43.3511 -43.2292 -43.1903
     6.5711   7.7717   8.0567   8.4387   8.7653   8.9811   9.0815   9.4004
     9.5794   9.6653   9.8160  12.3733

          k = 0.0000 0.3464 0.2326 (  1380 PWs)   bands (ev):

   -77.2765 -77.2749 -43.3991 -43.3960 -43.3589 -43.3546 -43.2166 -43.2017
     6.9714   7.4296   8.2310   8.3578   8.9355   9.1695   9.1724   9.2553
     9.6228   9.6637   9.8941  10.7383

          k = 0.0000 0.4619 0.0000 (  1390 PWs)   bands (ev):

   -77.2754 -77.2719 -43.4210 -43.4117 -43.3693 -43.3544 -43.2244 -43.1914
     7.2905   7.6463   7.7554   8.5705   8.6083   8.9850   9.3787   9.5442
     9.8618   9.9127  10.6257  14.8164

          k = 0.0000 0.4619 0.1163 (  1381 PWs)   bands (ev):

   -77.2749 -77.2720 -43.4208 -43.4131 -43.3676 -43.3554 -43.2203 -43.1937
     7.2163   7.6461   7.9273   8.2872   8.6855   9.3201   9.4349   9.6121
     9.8704   9.9171  10.5226  13.5137

          k = 0.0000 0.4619 0.2326 (  1385 PWs)   bands (ev):

   -77.2740 -77.2730 -43.4193 -43.4166 -43.3642 -43.3595 -43.2114 -43.2008
     7.2484   7.4473   8.1212   8.1927   8.8966   9.1793   9.6839   9.8907
     9.9108  10.0981  10.5510  11.7903

          k = 0.0000-0.5774 0.0000 (  1388 PWs)   bands (ev):

   -77.2743 -77.2712 -43.4292 -43.4193 -43.3709 -43.3560 -43.2188 -43.1949
     7.5302   7.5636   7.6427   8.5210   8.5733   9.3763   9.4211   9.5446
     9.9776  10.0357  11.8136  12.9901

          k = 0.0000-0.5774 0.1163 (  1388 PWs)   bands (ev):

   -77.2738 -77.2716 -43.4288 -43.4206 -43.3700 -43.3574 -43.2163 -43.1961
     7.2940   7.6222   7.9109   8.2315   8.6552   9.4376   9.4600   9.8813
     9.9853  10.0309  11.7389  12.8969

          k = 0.0000-0.5774 0.2326 (  1376 PWs)   bands (ev):

   -77.2729 -77.2721 -43.4269 -43.4239 -43.3660 -43.3609 -43.2089 -43.2012
     7.2646   7.4409   8.1004   8.1109   8.8785   9.1756   9.8195  10.0013
    10.0182  10.2189  11.8654  12.4973

          k = 0.1000 0.1732 0.0000 (  1374 PWs)   bands (ev):

   -77.2829 -77.2755 -43.3684 -43.3628 -43.3527 -43.3445 -43.2465 -43.1811
     5.0713   7.9200   8.5011   8.5760   8.7809   8.8263   8.9935   9.1413
     9.1851   9.3852   9.5072  12.3845

          k = 0.1000 0.1732 0.1163 (  1377 PWs)   bands (ev):

   -77.2822 -77.2762 -43.3683 -43.3631 -43.3524 -43.3455 -43.2398 -43.1873
     5.3197   7.7455   8.4163   8.5693   8.7984   8.8618   8.9413   9.1288
     9.2254   9.4097   9.5057  11.1000

          k = 0.1000 0.1732 0.2326 (  1380 PWs)   bands (ev):

   -77.2805 -77.2780 -43.3663 -43.3643 -43.3508 -43.3481 -43.2236 -43.2039
     6.0247   6.9975   8.4504   8.5471   8.8020   8.8587   8.9260   9.0181
     9.3526   9.4586   9.5776  10.0380

          k = 0.1000 0.2887 0.0000 (  1380 PWs)   bands (ev):

   -77.2796 -77.2738 -43.3894 -43.3829 -43.3616 -43.3508 -43.2380 -43.1843
     6.0222   8.0636   8.1283   8.4873   8.6225   8.8188   8.8725   9.4108
     9.5087   9.5252   9.7617  13.8098

          k = 0.1000 0.2887 0.1163 (  1381 PWs)   bands (ev):

   -77.2791 -77.2743 -43.3892 -43.3837 -43.3607 -43.3520 -43.2323 -43.1892
     6.2275   7.9002   8.1956   8.4676   8.6958   8.8279   8.8727   9.3161
     9.5382   9.5696   9.7617  12.0074

          k = 0.1000 0.2887 0.2326 (  1377 PWs)   bands (ev):

   -77.2776 -77.2757 -43.3879 -43.3857 -43.3581 -43.3549 -43.2184 -43.2023
     6.7724   7.4300   8.3288   8.4436   8.7704   8.8361   8.9478   9.1318
     9.6474   9.7008   9.7982  10.5319

          k = 0.1000 0.4041 0.0000 (  1383 PWs)   bands (ev):

   -77.2763 -77.2722 -43.4111 -43.4030 -43.3702 -43.3567 -43.2276 -43.1891
     7.0951   7.7610   7.9414   8.5185   8.6273   8.7108   9.1210   9.5068
     9.6998   9.8940  10.3667  15.3649

          k = 0.1000 0.4041 0.1163 (  1386 PWs)   bands (ev):

   -77.2759 -77.2726 -43.4108 -43.4041 -43.3690 -43.3583 -43.2235 -43.1925
     7.1383   7.7413   8.0222   8.3493   8.6948   8.9790   9.1406   9.3917
     9.7359   9.9472  10.3330  13.1930

          k = 0.1000 0.4041 0.2326 (  1378 PWs)   bands (ev):

   -77.2747 -77.2735 -43.4095 -43.4067 -43.3657 -43.3616 -43.2130 -43.2009
     7.2891   7.5321   8.2042   8.3195   8.8243   9.0705   9.2539   9.2890
     9.9196  10.0649  10.4063  11.4348

          k = 0.1000 0.5196 0.0000 (  1396 PWs)   bands (ev):

   -77.2743 -77.2715 -43.4250 -43.4154 -43.3754 -43.3606 -43.2191 -43.1945
     7.6001   7.6130   7.7765   8.4974   8.5708   9.0511   9.3263   9.5036
     9.9462  10.0780  11.5221  13.9156

          k = 0.1000 0.5196 0.1163 (  1390 PWs)   bands (ev):

   -77.2739 -77.2716 -43.4245 -43.4166 -43.3739 -43.3620 -43.2163 -43.1963
     7.3810   7.7318   7.9758   8.2480   8.5921   9.3306   9.3844   9.4628
     9.9536  10.1443  11.5344  13.6737

          k = 0.1000 0.5196 0.2326 (  1386 PWs)   bands (ev):

   -77.2731 -77.2723 -43.4228 -43.4199 -43.3706 -43.3660 -43.2089 -43.2011
     7.3632   7.5418   8.1470   8.2064   8.7619   9.0805   9.5955   9.6677
    10.0307  10.2092  11.8276  12.7246

          k = 0.2000 0.3464 0.0000 (  1384 PWs)   bands (ev):

   -77.2767 -77.2723 -43.4015 -43.4005 -43.3708 -43.3619 -43.2288 -43.1888
     7.0311   7.8398   8.2330   8.3076   8.4560   8.7780   8.9185   9.4659
     9.5782   9.9408  10.3490  15.2991

          k = 0.2000 0.3464 0.1163 (  1381 PWs)   bands (ev):

   -77.2762 -77.2727 -43.4019 -43.4008 -43.3704 -43.3629 -43.2244 -43.1920
     7.1311   7.7847   8.2471   8.3731   8.5886   8.7372   8.9068   9.3365
     9.6634   9.9861  10.3527  13.0842

          k = 0.2000 0.3464 0.2326 (  1383 PWs)   bands (ev):

   -77.2752 -77.2738 -43.4021 -43.4017 -43.3687 -43.3658 -43.2136 -43.2009
     7.3684   7.6183   8.3355   8.4285   8.7376   8.7538   8.9242   9.1002
     9.9535  10.0606  10.4615  11.3761

          k = 0.2000 0.4619 0.0000 (  1395 PWs)   bands (ev):

   -77.2742 -77.2716 -43.4147 -43.4085 -43.3822 -43.3709 -43.2193 -43.1942
     7.7091   7.8145   8.0652   8.3992   8.4932   8.6158   9.1255   9.4321
     9.8041  10.1486  11.3760  15.6717

          k = 0.2000 0.4619 0.1163 (  1398 PWs)   bands (ev):

   -77.2740 -77.2718 -43.4147 -43.4096 -43.3815 -43.3721 -43.2163 -43.1963
     7.6149   7.8653   8.1067   8.3373   8.5434   8.7797   9.1335   9.3231
     9.8614  10.1870  11.4546  14.5013

          k = 0.2000 0.4619 0.2326 (  1389 PWs)   bands (ev):

   -77.2732 -77.2723 -43.4133 -43.4114 -43.3791 -43.3756 -43.2088 -43.2013
     7.6063   7.7255   8.2571   8.4105   8.5791   8.8333   9.1661   9.1856
    10.0603  10.2103  11.8418  12.8683

          k = 0.2000 0.5774 0.0000 (  1398 PWs)   bands (ev):

   -77.2731 -77.2713 -43.4202 -43.4102 -43.3872 -43.3741 -43.2137 -43.1988
     7.6679   7.9530   7.9932   8.4425   8.4869   8.7317   9.2285   9.4197
     9.9541  10.1523  12.8717  13.5804

          k = 0.2000 0.5774 0.1163 (  1399 PWs)   bands (ev):

   -77.2729 -77.2715 -43.4196 -43.4115 -43.3866 -43.3757 -43.2116 -43.1994
     7.5990   8.0006   8.1390   8.2297   8.4457   8.9415   9.2596   9.3271
     9.9868  10.1935  13.0311  13.6272

          k = 0.2000 0.5774 0.2326 (  1392 PWs)   bands (ev):

   -77.2723 -77.2718 -43.4175 -43.4146 -43.3836 -43.3794 -43.2066 -43.2018
     7.6135   7.7907   8.2460   8.3811   8.4771   8.8305   9.3084   9.3215
    10.1007  10.2132  13.4535  13.7070

          k = 0.3000 0.5196 0.0000 (  1408 PWs)   bands (ev):

   -77.2726 -77.2716 -43.4128 -43.4050 -43.3956 -43.3859 -43.2106 -43.2012
     7.7182   8.1595   8.3070   8.3511   8.3790   8.4754   9.1331   9.3768
     9.9648  10.1373  13.0346  15.2867

          k = 0.3000 0.5196 0.1163 (  1399 PWs)   bands (ev):

   -77.2724 -77.2716 -43.4115 -43.4057 -43.3954 -43.3872 -43.2088 -43.2010
     7.7708   8.0692   8.2570   8.2575   8.5263   8.5944   9.1180   9.2719
    10.0138  10.1689  13.2137  15.2959

          k = 0.3000 0.5196 0.2326 (  1391 PWs)   bands (ev):

   -77.2720 -77.2716 -43.4093 -43.4074 -43.3938 -43.3908 -43.2050 -43.2021
     7.8689   7.9448   8.2362   8.2670   8.6012   8.6729   9.0950   9.1204
    10.1291  10.1971  13.7612  14.6786

 ------ SPIN DOWN ----------


          k = 0.0000 0.0000 0.0000 (  1353 PWs)   bands (ev):

   -73.9374 -73.9283 -40.0590 -40.0277 -40.0277 -40.0165 -40.0165 -39.9710
     4.5593   8.4183  10.7133  10.8395  11.4424  11.4424  11.6244  11.6244
    12.6833  12.6833  13.3244  13.3244

          k = 0.0000 0.0000 0.1163 (  1359 PWs)   bands (ev):

   -73.9369 -73.9290 -40.0505 -40.0262 -40.0262 -40.0176 -40.0176 -39.9809
     4.8247   7.9336  10.5123  10.6497  11.4377  11.4377  11.5882  11.5882
    12.7685  12.7685  13.2845  13.2845

          k = 0.0000 0.0000 0.2326 (  1371 PWs)   bands (ev):

   -73.9347 -73.9315 -40.0290 -40.0236 -40.0236 -40.0206 -40.0206 -40.0030
     5.5931   6.7536  10.3740  10.4967  11.4520  11.4520  11.5112  11.5112
    12.9635  12.9635  13.1593  13.1593

          k = 0.0000 0.1155 0.0000 (  1365 PWs)   bands (ev):

   -73.9365 -73.9275 -40.0561 -40.0368 -40.0302 -40.0262 -40.0185 -39.9726
     4.8246   8.6215  10.7070  10.7471  11.3632  11.5428  11.5625  11.7350
    12.5676  12.6076  13.3484  13.7239

          k = 0.0000 0.1155 0.1163 (  1373 PWs)   bands (ev):

   -73.9359 -73.9283 -40.0492 -40.0345 -40.0292 -40.0276 -40.0197 -39.9808
     5.0874   8.1549  10.4442  10.6924  11.3384  11.5193  11.5550  11.6978
    12.6706  12.7039  13.2975  13.4497

          k = 0.0000 0.1155 0.2326 (  1380 PWs)   bands (ev):

   -73.9337 -73.9307 -40.0369 -40.0312 -40.0262 -40.0234 -40.0229 -40.0008
     5.8487   6.9948  10.3716  10.5327  11.3430  11.4246  11.5648  11.6212
    12.9151  12.9227  13.1466  13.1827

          k = 0.0000 0.2309 0.0000 (  1379 PWs)   bands (ev):

   -73.9335 -73.9256 -40.0606 -40.0504 -40.0478 -40.0372 -40.0235 -39.9754
     5.5969   9.1388  10.4803  10.7295  11.1921  11.4770  11.8947  12.0359
    12.3160  12.4344  13.3875  14.6845

          k = 0.0000 0.2309 0.1163 (  1383 PWs)   bands (ev):

   -73.9328 -73.9264 -40.0622 -40.0521 -40.0381 -40.0362 -40.0249 -39.9815
     5.8511   8.7470  10.3079  10.7420  11.1232  11.4086  11.8747  11.9946
    12.4647  12.5611  13.3121  13.8149

          k = 0.0000 0.2309 0.2326 (  1374 PWs)   bands (ev):

   -73.9307 -73.9283 -40.0606 -40.0562 -40.0324 -40.0283 -40.0191 -39.9980
     6.5843   7.6735  10.3658  10.6181  11.0849  11.2423  11.8711  11.9209
    12.8114  12.8279  13.1066  13.2367

          k = 0.0000 0.3464 0.0000 (  1372 PWs)   bands (ev):

   -73.9292 -73.9232 -40.0898 -40.0786 -40.0453 -40.0360 -40.0299 -39.9796
     6.7939   9.6263  10.3280  10.5875  10.9953  11.8014  12.0140  12.2483
    12.3466  12.4358  13.4103  15.7755

          k = 0.0000 0.3464 0.1163 (  1383 PWs)   bands (ev):

   -73.9288 -73.9239 -40.0907 -40.0813 -40.0441 -40.0313 -40.0289 -39.9843
     7.0188   9.4093  10.1915  10.6960  10.9103  11.5388  12.2249  12.2971
    12.3851  12.4977  13.3072  14.2639

          k = 0.0000 0.3464 0.2326 (  1380 PWs)   bands (ev):

   -73.9272 -73.9254 -40.0902 -40.0862 -40.0402 -40.0353 -40.0129 -39.9961
     7.6659   8.5866  10.3293  10.6406  10.9142  11.2119  12.2524  12.3229
    12.7299  12.7478  13.0502  13.3185

          k = 0.0000 0.4619 0.0000 (  1390 PWs)   bands (ev):

   -73.9258 -73.9218 -40.1136 -40.1027 -40.0522 -40.0351 -40.0244 -39.9861
     8.1613   9.6776  10.2745  10.4197  11.0423  11.7580  12.1113  12.4583
    12.7429  12.8002  13.4172  15.6109

          k = 0.0000 0.4619 0.1163 (  1381 PWs)   bands (ev):

   -73.9254 -73.9220 -40.1142 -40.1050 -40.0504 -40.0364 -40.0189 -39.9882
     8.3178   9.6182  10.1494  10.5703  10.9961  11.7786  12.2044  12.4766
    12.7608  12.7784  13.2850  14.6389

          k = 0.0000 0.4619 0.2326 (  1385 PWs)   bands (ev):

   -73.9244 -73.9232 -40.1137 -40.1102 -40.0464 -40.0409 -40.0072 -39.9953
     8.7356   9.2531  10.2625  10.5067  11.1748  11.5677  12.4486  12.6873
    12.7625  12.8243  13.0009  13.4663

          k = 0.0000-0.5774 0.0000 (  1388 PWs)   bands (ev):

   -73.9245 -73.9211 -40.1231 -40.1115 -40.0542 -40.0369 -40.0181 -39.9902
     8.9968   9.5115  10.2700  10.2920  11.1071  11.6554  12.0612  12.8927
    12.9623  13.2145  13.4180  14.3322

          k = 0.0000-0.5774 0.1163 (  1388 PWs)   bands (ev):

   -73.9241 -73.9215 -40.1235 -40.1138 -40.0530 -40.0386 -40.0141 -39.9910
     9.0518   9.5019  10.2233  10.3865  11.0952  11.9357  12.1672  12.8948
    12.9575  12.9604  13.2637  14.1414

          k = 0.0000-0.5774 0.2326 (  1376 PWs)   bands (ev):

   -73.9231 -73.9222 -40.1226 -40.1189 -40.0485 -40.0427 -40.0044 -39.9956
     9.1985   9.3868  10.2690  10.4362  11.3752  12.0399  12.4602  12.8316
    12.8457  12.9466  12.9656  13.5669

          k = 0.1000 0.1732 0.0000 (  1374 PWs)   bands (ev):

   -73.9345 -73.9261 -40.0515 -40.0504 -40.0449 -40.0331 -40.0234 -39.9745
     5.3441   8.9872  10.5407  10.7491  11.2885  11.3929  11.7994  11.9577
    12.3435  12.5401  13.3593  14.3959

          k = 0.1000 0.1732 0.1163 (  1377 PWs)   bands (ev):

   -73.9337 -73.9269 -40.0547 -40.0458 -40.0392 -40.0328 -40.0246 -39.9810
     5.6009   8.5666  10.3473  10.7386  11.1917  11.3933  11.7802  11.9133
    12.5097  12.6222  13.2925  13.7187

          k = 0.1000 0.1732 0.2326 (  1380 PWs)   bands (ev):

   -73.9317 -73.9290 -40.0525 -40.0486 -40.0310 -40.0278 -40.0201 -39.9987
     6.3450   7.4584  10.3706  10.5973  11.1486  11.2741  11.7828  11.8365
    12.8483  12.8492  13.1058  13.2326

          k = 0.1000 0.2887 0.0000 (  1380 PWs)   bands (ev):

   -73.9308 -73.9241 -40.0761 -40.0689 -40.0432 -40.0405 -40.0309 -39.9780
     6.3352   9.5312  10.3845  10.5914  11.1384  11.4744  12.0650  12.1990
    12.3535  12.3648  13.3633  15.5220

          k = 0.1000 0.2887 0.1163 (  1381 PWs)   bands (ev):

   -73.9302 -73.9247 -40.0774 -40.0705 -40.0424 -40.0335 -40.0310 -39.9830
     6.5766   9.2376  10.2346  10.6568  11.0617  11.3310  12.1098  12.2354
    12.3823  12.5220  13.2742  14.1391

          k = 0.1000 0.2887 0.2326 (  1377 PWs)   bands (ev):

   -73.9285 -73.9264 -40.0773 -40.0741 -40.0397 -40.0359 -40.0145 -39.9965
     7.2662   8.2790  10.3668  10.6903  10.8737  11.1060  12.1279  12.2090
    12.7652  12.7710  13.0480  13.3227

          k = 0.1000 0.4041 0.0000 (  1383 PWs)   bands (ev):

   -73.9269 -73.9222 -40.1019 -40.0924 -40.0532 -40.0378 -40.0283 -39.9836
     7.6485   9.8037  10.3229  10.4275  11.0530  11.8230  11.9179  12.1439
    12.5878  12.8230  13.3613  16.1355

          k = 0.1000 0.4041 0.1163 (  1386 PWs)   bands (ev):

   -73.9265 -73.9227 -40.1025 -40.0944 -40.0521 -40.0397 -40.0222 -39.9866
     7.8463   9.7206  10.1592  10.5806  10.9498  11.5478  12.1557  12.2286
    12.6861  12.7695  13.2654  14.7130

          k = 0.1000 0.4041 0.2326 (  1378 PWs)   bands (ev):

   -73.9252 -73.9238 -40.1022 -40.0988 -40.0486 -40.0438 -40.0086 -39.9950
     8.3963   9.1362  10.3152  10.6166  10.8823  11.1954  12.3112  12.5528
    12.7037  12.8751  13.0940  13.5492

          k = 0.1000 0.5196 0.0000 (  1396 PWs)   bands (ev):

   -73.9245 -73.9213 -40.1181 -40.1069 -40.0593 -40.0423 -40.0184 -39.9899
     8.8694   9.6912  10.2704  10.3263  11.1478  11.6714  11.9964  12.5080
    12.7663  13.3567  13.3619  15.0637

          k = 0.1000 0.5196 0.1163 (  1390 PWs)   bands (ev):

   -73.9241 -73.9215 -40.1184 -40.1091 -40.0579 -40.0442 -40.0139 -39.9909
     8.9703   9.6812  10.1773  10.4931  11.0650  11.7081  12.1144  12.5293
    12.7984  13.0810  13.4308  14.7404

          k = 0.1000 0.5196 0.2326 (  1386 PWs)   bands (ev):

   -73.9233 -73.9223 -40.1176 -40.1141 -40.0543 -40.0489 -40.0040 -39.9953
     9.2208   9.5085  10.2911  10.5226  11.1563  11.5465  12.3911  12.6667
    12.6750  12.8675  13.4932  13.9969

          k = 0.2000 0.3464 0.0000 (  1384 PWs)   bands (ev):

   -73.9274 -73.9223 -40.0904 -40.0898 -40.0541 -40.0437 -40.0297 -39.9831
     7.4664   9.9343  10.3369  10.3659  11.1770  11.5681  11.8138  12.1799
    12.5293  12.8595  13.3028  16.2737

          k = 0.2000 0.3464 0.1163 (  1381 PWs)   bands (ev):

   -73.9268 -73.9228 -40.0920 -40.0906 -40.0540 -40.0454 -40.0230 -39.9860
     7.6779   9.8551  10.1758  10.4122  11.1844  11.2292  12.0644  12.1795
    12.7025  12.7748  13.2413  14.7647

          k = 0.2000 0.3464 0.2326 (  1383 PWs)   bands (ev):

   -73.9256 -73.9241 -40.0936 -40.0927 -40.0524 -40.0491 -40.0089 -39.9948
     8.2736   9.1132  10.3849  10.6070  10.8173  10.9566  12.2066  12.5133
    12.7159  12.8784  13.1582  13.6258

          k = 0.2000 0.4619 0.0000 (  1395 PWs)   bands (ev):

   -73.9243 -73.9214 -40.1061 -40.0987 -40.0674 -40.0544 -40.0186 -39.9895
     8.7299   9.9770  10.1950  10.4307  11.2842  11.6615  11.9186  11.9340
    12.6343  13.2550  13.5037  16.5252

          k = 0.2000 0.4619 0.1163 (  1398 PWs)   bands (ev):

   -73.9241 -73.9217 -40.1067 -40.1008 -40.0671 -40.0562 -40.0137 -39.9907
     8.8811  10.0499  10.1456  10.4474  11.1380  11.4261  11.9049  12.2069
    12.7631  12.9864  13.6252  15.6553

          k = 0.2000 0.4619 0.2326 (  1389 PWs)   bands (ev):

   -73.9233 -73.9223 -40.1064 -40.1042 -40.0649 -40.0606 -40.0034 -39.9949
     9.2839   9.7691  10.3500  10.5773  10.8483  11.0371  12.1225  12.5207
    12.6373  12.8621  13.8397  14.4682

          k = 0.2000 0.5774 0.0000 (  1398 PWs)   bands (ev):

   -73.9231 -73.9211 -40.1124 -40.1008 -40.0735 -40.0582 -40.0119 -39.9946
     9.4556   9.8705  10.0955  10.4812  11.3515  11.6295  11.7707  12.3629
    12.4536  13.2371  14.3099  15.0072

          k = 0.2000 0.5774 0.1163 (  1399 PWs)   bands (ev):

   -73.9229 -73.9213 -40.1124 -40.1031 -40.0731 -40.0604 -40.0083 -39.9943
     9.5404   9.9070  10.1445  10.5545  11.1400  11.4514  11.9239  12.4282
    12.5822  12.9871  14.4504  15.0014

          k = 0.2000 0.5774 0.2326 (  1392 PWs)   bands (ev):

   -73.9223 -73.9217 -40.1112 -40.1078 -40.0702 -40.0652 -40.0008 -39.9955
     9.7294   9.8811  10.3714  10.6840  10.8577  11.1255  12.1713  12.5208
    12.5952  12.7051  14.7215  14.9398

          k = 0.3000 0.5196 0.0000 (  1408 PWs)   bands (ev):

   -73.9225 -73.9213 -40.1034 -40.0945 -40.0832 -40.0719 -40.0084 -39.9974
     9.6168   9.9947  10.0711  10.5908  11.5599  11.5870  11.6626  12.0500
    12.3938  13.1783  14.5778  16.2768

          k = 0.3000 0.5196 0.1163 (  1399 PWs)   bands (ev):

   -73.9222 -73.9213 -40.1024 -40.0964 -40.0838 -40.0738 -40.0051 -39.9962
     9.7385  10.0873  10.1380  10.5603  11.2887  11.3207  11.7290  12.2779
    12.5440  12.9197  14.7549  16.2608

          k = 0.3000 0.5196 0.2326 (  1391 PWs)   bands (ev):

   -73.9219 -73.9215 -40.1012 -40.0996 -40.0827 -40.0786 -39.9989 -39.9957
    10.0284  10.2182  10.3521  10.5738  10.7782  10.9056  11.9953  12.4288
    12.5575  12.6609  15.1819  15.8303

     the Fermi energy is    11.2938 ev

!    total energy              =    -658.42201128 Ry
     Harris-Foulkes estimate   =    -658.42201128 Ry
     estimated scf accuracy    <          1.5E-09 Ry

     total all-electron energy =     -5091.015082 Ry

     The total energy is the sum of the following terms:

     one-electron contribution =    -292.62659703 Ry
     hartree contribution      =     159.02134864 Ry
     xc contribution           =     -69.42520930 Ry
     ewald contribution        =    -303.11181016 Ry
     one-center paw contrib.   =    -152.27917216 Ry
     smearing contrib. (-TS)   =      -0.00057128 Ry

     total magnetization       =     5.71 Bohr mag/cell
     absolute magnetization    =     6.03 Bohr mag/cell

     convergence has been achieved in  21 iterations

     Forces acting on atoms (Ry/au):


     negative rho (up, down):  0.000E+00 9.232E-04
     atom    1 type  1   force =     0.00000000    0.00000000    0.00000000
     atom    2 type  1   force =     0.00000000    0.00000000    0.00000000

     Total force =     0.000000     Total SCF correction =     0.000000


     entering subroutine stress ...


     negative rho (up, down):  0.000E+00 9.232E-04
          total   stress  (Ry/bohr**3)                   (kbar)     P= -288.01
  -0.00212082  -0.00000000   0.00000000       -311.98     -0.00      0.00
  -0.00000000  -0.00212082   0.00000000         -0.00   -311.98      0.00
   0.00000000   0.00000000  -0.00163186          0.00      0.00   -240.05


     Writing output data file Fe_hcp.save

     init_run     :      5.07s CPU      5.02s WALL (       1 calls)
     electrons    :    193.25s CPU    183.80s WALL (       1 calls)
     forces       :      0.88s CPU      0.69s WALL (       1 calls)
     stress       :      2.31s CPU      2.30s WALL (       1 calls)

     Called by init_run:
     wfcinit      :      3.42s CPU      3.31s WALL (       1 calls)
     potinit      :      1.05s CPU      1.09s WALL (       1 calls)

     Called by electrons:
     c_bands      :    144.66s CPU    134.62s WALL (      21 calls)
     sum_band     :     24.94s CPU     24.58s WALL (      21 calls)
     v_of_rho     :      1.32s CPU      1.38s WALL (      22 calls)
     newd         :      1.60s CPU      1.68s WALL (      22 calls)
     mix_rho      :      0.22s CPU      0.29s WALL (      21 calls)

     Called by c_bands:
     init_us_2    :      2.09s CPU      2.14s WALL (    3780 calls)
     cegterg      :    138.57s CPU    128.41s WALL (    1764 calls)

     Called by *egterg:
     h_psi        :    111.66s CPU    108.95s WALL (    5760 calls)
     s_psi        :      4.76s CPU      2.76s WALL (    5760 calls)
     g_psi        :      0.69s CPU      0.70s WALL (    3912 calls)
     cdiaghg      :      5.43s CPU      5.52s WALL (    5676 calls)

     Called by h_psi:
     add_vuspsi   :      5.20s CPU      3.00s WALL (    5760 calls)

     General routines
     calbec       :      7.69s CPU      4.35s WALL (    7692 calls)
     fft          :      0.74s CPU      0.76s WALL (     716 calls)
     ffts         :      0.06s CPU      0.06s WALL (      86 calls)
     fftw         :    109.05s CPU    111.02s WALL (  211282 calls)
     interpolate  :      0.17s CPU      0.19s WALL (      86 calls)
     davcio       :      0.00s CPU      0.05s WALL (      84 calls)


     PAW routines
     PAW_pot      :     21.50s CPU     22.23s WALL (      22 calls)
     PAW_symme    :      0.03s CPU      0.03s WALL (      43 calls)

     PWSCF        :  3m22.01s CPU     3m12.59s WALL


   This run was terminated on:  21:49:45  11May2015            

=------------------------------------------------------------------------------=
   JOB DONE.
=------------------------------------------------------------------------------=
