
     Program PWSCF v.5.1.2 starts on 11May2015 at 23:28:12 

     This program is part of the open-source Quantum ESPRESSO suite
     for quantum simulation of materials; please cite
         "P. Giannozzi et al., J. Phys.:Condens. Matter 21 395502 (2009);
          URL http://www.quantum-espresso.org", 
     in publications or presentations arising from this work. More details at
     http://www.quantum-espresso.org/quote

     Serial version
     Reading input from Fe_HCP_5.39_172_11_6.pw.in

     Current dimensions of program PWSCF are:
     Max number of different atomic species (ntypx) = 10
     Max number of k-points (npk) =  40000
     Max angular momentum in pseudopotentials (lmaxx) =  3
               file Fe.pbe-spn-kjpaw_psl.0.2.1.UPF: wavefunction(s)  3D renormalized

     G-vector sticks info
     --------------------
     sticks:   dense  smooth     PW     G-vecs:    dense   smooth      PW
     Sum         499     397    121                15569    11129    1955

     Generating pointlists ...
     new r_m :   0.4125 (alat units)  2.2234 (a.u.) for type    1


     bravais-lattice index     =            4
     lattice parameter (alat)  =       5.3900  a.u.
     unit-cell volume          =     233.2520 (a.u.)^3
     number of atoms/cell      =            2
     number of atomic types    =            1
     number of electrons       =        32.00
     number of Kohn-Sham states=           20
     kinetic-energy cutoff     =      50.0000  Ry
     charge density cutoff     =     250.0000  Ry
     convergence threshold     =      1.0E-08
     mixing beta               =       0.7000
     number of iterations used =            8  plain     mixing
     Exchange-correlation      =  SLA  PW   PBX  PBC ( 1  4  3  4 0 0)

     celldm(1)=   5.390000  celldm(2)=   0.000000  celldm(3)=   1.720000
     celldm(4)=   0.000000  celldm(5)=   0.000000  celldm(6)=   0.000000

     crystal axes: (cart. coord. in units of alat)
               a(1) = (   1.000000   0.000000   0.000000 )  
               a(2) = (  -0.500000   0.866025   0.000000 )  
               a(3) = (   0.000000   0.000000   1.720000 )  

     reciprocal axes: (cart. coord. in units 2 pi/alat)
               b(1) = (  1.000000  0.577350 -0.000000 )  
               b(2) = (  0.000000  1.154701  0.000000 )  
               b(3) = (  0.000000 -0.000000  0.581395 )  


     PseudoPot. # 1 for Fe read from file:
     ./Fe.pbe-spn-kjpaw_psl.0.2.1.UPF
     MD5 check sum: a0a08122d52b112de96d1da1d7dd020f
     Pseudo is Projector augmented-wave + core cor, Zval = 16.0
     Generated using "atomic" code by A. Dal Corso  v.5.0.2 svn rev. 9415
     Shape of augmentation charge: PSQ
     Using radial grid of 1191 points,  6 beta functions with: 
                l(1) =   0
                l(2) =   0
                l(3) =   1
                l(4) =   1
                l(5) =   2
                l(6) =   2
     Q(r) pseudized with 0 coefficients 


     atomic species   valence    mass     pseudopotential
        Fe            16.00    55.85000     Fe( 1.00)

     Starting magnetic structure 
     atomic species   magnetization
        Fe           0.700

     24 Sym. Ops., with inversion, found (12 have fractional translation)



   Cartesian axes

     site n.     atom                  positions (alat units)
         1           Fe  tau(   1) = (  -0.0000000   0.5773503   0.4300000  )
         2           Fe  tau(   2) = (   0.5000000   0.2886751   1.2900000  )

     number of k points=   128  Marzari-Vanderbilt smearing, width (Ry)=  0.0250

     Number of k-points >= 100: set verbosity='high' to print them.

     Dense  grid:    15569 G-vectors     FFT dimensions: (  27,  27,  48)

     Smooth grid:    11129 G-vectors     FFT dimensions: (  25,  25,  45)

     Largest allocated arrays     est. size (Mb)     dimensions
        Kohn-Sham Wavefunctions         0.43 Mb     (    1420,   20)
        NL pseudopotentials             0.78 Mb     (    1420,   36)
        Each V/rho on FFT grid          1.07 Mb     (   34992,   2)
        Each G-vector array             0.12 Mb     (   15569)
        G-vector shells                 0.01 Mb     (     815)
     Largest temporary arrays     est. size (Mb)     dimensions
        Auxiliary wavefunctions         1.73 Mb     (    1420,   80)
        Each subspace H/S matrix        0.10 Mb     (      80,   80)
        Each <psi_i|beta_j> matrix      0.01 Mb     (      36,   20)
        Arrays for rho mixing           4.27 Mb     (   34992,    8)

     Check: negative/imaginary core charge=   -0.000323    0.000000

     Initial potential from superposition of free atoms

     starting charge   31.99912, renormalised to   32.00000
     Starting wfc are   26 randomized atomic wfcs

     total cpu time spent up to now is        8.0 secs

     Self-consistent Calculation

     iteration #  1     ecut=    50.00 Ry     beta=0.70
     Davidson diagonalization with overlap
     ethr =  1.00E-02,  avg # of iterations =  1.9

     negative rho (up, down):  0.000E+00 1.051E-03

     Magnetic moment per site:
     atom:    1    charge:   14.6048    magn:    5.9369    constr:    0.0000
     atom:    2    charge:   14.6048    magn:    5.9369    constr:    0.0000

     total cpu time spent up to now is       20.8 secs

     total energy              =    -657.97272055 Ry
     Harris-Foulkes estimate   =    -656.24781902 Ry
     estimated scf accuracy    <       2.84539894 Ry

     total magnetization       =     8.00 Bohr mag/cell
     absolute magnetization    =     8.24 Bohr mag/cell

     iteration #  2     ecut=    50.00 Ry     beta=0.70
     Davidson diagonalization with overlap
     ethr =  8.89E-03,  avg # of iterations =  1.5

     negative rho (up, down):  0.000E+00 1.036E-03

     Magnetic moment per site:
     atom:    1    charge:   14.8274    magn:    3.9971    constr:    0.0000
     atom:    2    charge:   14.8274    magn:    3.9971    constr:    0.0000

     total cpu time spent up to now is       32.6 secs

     total energy              =    -658.15723858 Ry
     Harris-Foulkes estimate   =    -658.18339603 Ry
     estimated scf accuracy    <       0.81502992 Ry

     total magnetization       =     6.58 Bohr mag/cell
     absolute magnetization    =     6.86 Bohr mag/cell

     iteration #  3     ecut=    50.00 Ry     beta=0.70
     Davidson diagonalization with overlap
     ethr =  2.55E-03,  avg # of iterations =  3.0

     negative rho (up, down):  0.000E+00 1.209E-03

     Magnetic moment per site:
     atom:    1    charge:   14.7135    magn:    3.0336    constr:    0.0000
     atom:    2    charge:   14.7135    magn:    3.0336    constr:    0.0000

     total cpu time spent up to now is       47.1 secs

     total energy              =    -658.18685713 Ry
     Harris-Foulkes estimate   =    -658.65189907 Ry
     estimated scf accuracy    <       1.29690771 Ry

     total magnetization       =     6.60 Bohr mag/cell
     absolute magnetization    =     6.87 Bohr mag/cell

     iteration #  4     ecut=    50.00 Ry     beta=0.70
     Davidson diagonalization with overlap
     ethr =  2.55E-03,  avg # of iterations =  2.7

     negative rho (up, down):  0.000E+00 1.015E-03

     Magnetic moment per site:
     atom:    1    charge:   14.7680    magn:    3.0173    constr:    0.0000
     atom:    2    charge:   14.7680    magn:    3.0173    constr:    0.0000

     total cpu time spent up to now is       60.8 secs

     total energy              =    -658.41166709 Ry
     Harris-Foulkes estimate   =    -658.41193271 Ry
     estimated scf accuracy    <       0.00650656 Ry

     total magnetization       =     5.89 Bohr mag/cell
     absolute magnetization    =     6.25 Bohr mag/cell

     iteration #  5     ecut=    50.00 Ry     beta=0.70
     Davidson diagonalization with overlap
     ethr =  2.03E-05,  avg # of iterations =  3.2

     negative rho (up, down):  0.000E+00 1.014E-03

     Magnetic moment per site:
     atom:    1    charge:   14.7607    magn:    3.0217    constr:    0.0000
     atom:    2    charge:   14.7607    magn:    3.0217    constr:    0.0000

     total cpu time spent up to now is       79.4 secs

     total energy              =    -658.41846868 Ry
     Harris-Foulkes estimate   =    -658.41758260 Ry
     estimated scf accuracy    <       0.00074692 Ry

     total magnetization       =     5.91 Bohr mag/cell
     absolute magnetization    =     6.24 Bohr mag/cell

     iteration #  6     ecut=    50.00 Ry     beta=0.70
     Davidson diagonalization with overlap
     ethr =  2.33E-06,  avg # of iterations =  2.1

     negative rho (up, down):  0.000E+00 9.806E-04

     Magnetic moment per site:
     atom:    1    charge:   14.7605    magn:    3.0132    constr:    0.0000
     atom:    2    charge:   14.7605    magn:    3.0132    constr:    0.0000

     total cpu time spent up to now is       93.0 secs

     total energy              =    -658.41860937 Ry
     Harris-Foulkes estimate   =    -658.41869590 Ry
     estimated scf accuracy    <       0.00052275 Ry

     total magnetization       =     5.91 Bohr mag/cell
     absolute magnetization    =     6.22 Bohr mag/cell

     iteration #  7     ecut=    50.00 Ry     beta=0.70
     Davidson diagonalization with overlap
     ethr =  1.63E-06,  avg # of iterations =  2.9

     negative rho (up, down):  0.000E+00 9.922E-04

     Magnetic moment per site:
     atom:    1    charge:   14.7608    magn:    3.0174    constr:    0.0000
     atom:    2    charge:   14.7608    magn:    3.0174    constr:    0.0000

     total cpu time spent up to now is      108.1 secs

     total energy              =    -658.41970611 Ry
     Harris-Foulkes estimate   =    -658.41919330 Ry
     estimated scf accuracy    <       0.00006805 Ry

     total magnetization       =     5.90 Bohr mag/cell
     absolute magnetization    =     6.19 Bohr mag/cell

     iteration #  8     ecut=    50.00 Ry     beta=0.70
     Davidson diagonalization with overlap
     ethr =  2.13E-07,  avg # of iterations =  3.1

     negative rho (up, down):  0.000E+00 9.902E-04

     Magnetic moment per site:
     atom:    1    charge:   14.7612    magn:    3.0160    constr:    0.0000
     atom:    2    charge:   14.7612    magn:    3.0160    constr:    0.0000

     total cpu time spent up to now is      127.0 secs

     total energy              =    -658.41978010 Ry
     Harris-Foulkes estimate   =    -658.41976620 Ry
     estimated scf accuracy    <       0.00025292 Ry

     total magnetization       =     5.90 Bohr mag/cell
     absolute magnetization    =     6.19 Bohr mag/cell

     iteration #  9     ecut=    50.00 Ry     beta=0.70
     Davidson diagonalization with overlap
     ethr =  2.13E-07,  avg # of iterations =  1.6

     negative rho (up, down):  0.000E+00 9.826E-04

     Magnetic moment per site:
     atom:    1    charge:   14.7625    magn:    3.0069    constr:    0.0000
     atom:    2    charge:   14.7625    magn:    3.0069    constr:    0.0000

     total cpu time spent up to now is      140.3 secs

     total energy              =    -658.41995102 Ry
     Harris-Foulkes estimate   =    -658.41979008 Ry
     estimated scf accuracy    <       0.00025234 Ry

     total magnetization       =     5.89 Bohr mag/cell
     absolute magnetization    =     6.19 Bohr mag/cell

     iteration # 10     ecut=    50.00 Ry     beta=0.70
     Davidson diagonalization with overlap
     ethr =  2.13E-07,  avg # of iterations =  2.7

     negative rho (up, down):  0.000E+00 9.771E-04

     Magnetic moment per site:
     atom:    1    charge:   14.7622    magn:    3.0024    constr:    0.0000
     atom:    2    charge:   14.7622    magn:    3.0024    constr:    0.0000

     total cpu time spent up to now is      155.9 secs

     total energy              =    -658.41994611 Ry
     Harris-Foulkes estimate   =    -658.42001432 Ry
     estimated scf accuracy    <       0.00002387 Ry

     total magnetization       =     5.89 Bohr mag/cell
     absolute magnetization    =     6.18 Bohr mag/cell

     iteration # 11     ecut=    50.00 Ry     beta=0.70
     Davidson diagonalization with overlap
     ethr =  7.46E-08,  avg # of iterations =  3.4

     negative rho (up, down):  0.000E+00 9.777E-04

     Magnetic moment per site:
     atom:    1    charge:   14.7613    magn:    3.0062    constr:    0.0000
     atom:    2    charge:   14.7613    magn:    3.0062    constr:    0.0000

     total cpu time spent up to now is      172.9 secs

     total energy              =    -658.42005217 Ry
     Harris-Foulkes estimate   =    -658.41998944 Ry
     estimated scf accuracy    <       0.00000774 Ry

     total magnetization       =     5.89 Bohr mag/cell
     absolute magnetization    =     6.17 Bohr mag/cell

     iteration # 12     ecut=    50.00 Ry     beta=0.70
     Davidson diagonalization with overlap
     ethr =  2.42E-08,  avg # of iterations =  2.6

     negative rho (up, down):  0.000E+00 9.758E-04

     Magnetic moment per site:
     atom:    1    charge:   14.7618    magn:    3.0030    constr:    0.0000
     atom:    2    charge:   14.7618    magn:    3.0030    constr:    0.0000

     total cpu time spent up to now is      192.7 secs

     total energy              =    -658.42006515 Ry
     Harris-Foulkes estimate   =    -658.42005843 Ry
     estimated scf accuracy    <       0.00001696 Ry

     total magnetization       =     5.89 Bohr mag/cell
     absolute magnetization    =     6.17 Bohr mag/cell

     iteration # 13     ecut=    50.00 Ry     beta=0.70
     Davidson diagonalization with overlap
     ethr =  2.42E-08,  avg # of iterations =  2.5

     negative rho (up, down):  0.000E+00 9.753E-04

     Magnetic moment per site:
     atom:    1    charge:   14.7619    magn:    3.0026    constr:    0.0000
     atom:    2    charge:   14.7619    magn:    3.0026    constr:    0.0000

     total cpu time spent up to now is      208.5 secs

     total energy              =    -658.42007272 Ry
     Harris-Foulkes estimate   =    -658.42007059 Ry
     estimated scf accuracy    <       0.00000028 Ry

     total magnetization       =     5.88 Bohr mag/cell
     absolute magnetization    =     6.17 Bohr mag/cell

     iteration # 14     ecut=    50.00 Ry     beta=0.70
     Davidson diagonalization with overlap
     ethr =  8.84E-10,  avg # of iterations =  3.8

     negative rho (up, down):  0.000E+00 9.750E-04

     Magnetic moment per site:
     atom:    1    charge:   14.7620    magn:    3.0023    constr:    0.0000
     atom:    2    charge:   14.7620    magn:    3.0023    constr:    0.0000

     total cpu time spent up to now is      229.1 secs

     total energy              =    -658.42007347 Ry
     Harris-Foulkes estimate   =    -658.42007304 Ry
     estimated scf accuracy    <       0.00000012 Ry

     total magnetization       =     5.88 Bohr mag/cell
     absolute magnetization    =     6.16 Bohr mag/cell

     iteration # 15     ecut=    50.00 Ry     beta=0.70
     Davidson diagonalization with overlap
     ethr =  3.65E-10,  avg # of iterations =  3.1

     negative rho (up, down):  0.000E+00 9.748E-04

     Magnetic moment per site:
     atom:    1    charge:   14.7620    magn:    3.0021    constr:    0.0000
     atom:    2    charge:   14.7620    magn:    3.0021    constr:    0.0000

     total cpu time spent up to now is      243.8 secs

     total energy              =    -658.42007377 Ry
     Harris-Foulkes estimate   =    -658.42007361 Ry
     estimated scf accuracy    <       0.00000002 Ry

     total magnetization       =     5.88 Bohr mag/cell
     absolute magnetization    =     6.16 Bohr mag/cell

     iteration # 16     ecut=    50.00 Ry     beta=0.70
     Davidson diagonalization with overlap
     ethr =  5.37E-11,  avg # of iterations =  4.1

     negative rho (up, down):  0.000E+00 9.747E-04

     Magnetic moment per site:
     atom:    1    charge:   14.7620    magn:    3.0020    constr:    0.0000
     atom:    2    charge:   14.7620    magn:    3.0020    constr:    0.0000

     total cpu time spent up to now is      260.7 secs

     End of self-consistent calculation

     Number of k-points >= 100: set verbosity='high' to print the bands.

     the Fermi energy is    11.2010 ev

!    total energy              =    -658.42007393 Ry
     Harris-Foulkes estimate   =    -658.42007382 Ry
     estimated scf accuracy    <          1.1E-09 Ry

     total all-electron energy =     -5091.013145 Ry

     The total energy is the sum of the following terms:

     one-electron contribution =    -293.50606892 Ry
     hartree contribution      =     159.34428635 Ry
     xc contribution           =     -69.42950076 Ry
     ewald contribution        =    -302.54945059 Ry
     one-center paw contrib.   =    -152.27946080 Ry
     smearing contrib. (-TS)   =       0.00012078 Ry

     total magnetization       =     5.88 Bohr mag/cell
     absolute magnetization    =     6.16 Bohr mag/cell

     convergence has been achieved in  16 iterations

     Forces acting on atoms (Ry/au):


     negative rho (up, down):  0.000E+00 9.747E-04
     atom    1 type  1   force =     0.00000000    0.00000000    0.00000000
     atom    2 type  1   force =    -0.00000000   -0.00000000    0.00000000

     Total force =     0.000000     Total SCF correction =     0.000000


     entering subroutine stress ...


     negative rho (up, down):  0.000E+00 9.747E-04
          total   stress  (Ry/bohr**3)                   (kbar)     P= -281.82
  -0.00203633   0.00000000   0.00000000       -299.55      0.00      0.00
   0.00000000  -0.00203633   0.00000000          0.00   -299.55      0.00
   0.00000000   0.00000000  -0.00167463          0.00      0.00   -246.35


     Writing output data file Fe_hcp.save

     init_run     :      7.40s CPU      7.61s WALL (       1 calls)
     electrons    :    250.88s CPU    252.76s WALL (       1 calls)
     forces       :      1.13s CPU      1.02s WALL (       1 calls)
     stress       :      3.15s CPU      3.19s WALL (       1 calls)

     Called by init_run:
     wfcinit      :      5.64s CPU      5.71s WALL (       1 calls)
     potinit      :      1.11s CPU      1.19s WALL (       1 calls)

     Called by electrons:
     c_bands      :    201.53s CPU    200.18s WALL (      16 calls)
     sum_band     :     30.11s CPU     31.29s WALL (      16 calls)
     v_of_rho     :      1.09s CPU      1.22s WALL (      17 calls)
     newd         :      1.35s CPU      1.50s WALL (      17 calls)
     mix_rho      :      0.19s CPU      0.27s WALL (      16 calls)

     Called by c_bands:
     init_us_2    :      2.66s CPU      2.85s WALL (    4480 calls)
     cegterg      :    194.24s CPU    192.22s WALL (    2048 calls)

     Called by *egterg:
     h_psi        :    153.29s CPU    160.53s WALL (    7826 calls)
     s_psi        :      7.05s CPU      4.50s WALL (    7826 calls)
     g_psi        :      0.94s CPU      1.01s WALL (    5650 calls)
     cdiaghg      :      8.48s CPU      9.22s WALL (    7698 calls)

     Called by h_psi:
     add_vuspsi   :      7.73s CPU      5.06s WALL (    7826 calls)

     General routines
     calbec       :     10.87s CPU      6.66s WALL (   10130 calls)
     fft          :      0.65s CPU      0.71s WALL (     561 calls)
     ffts         :      0.05s CPU      0.05s WALL (      66 calls)
     fftw         :    146.08s CPU    159.48s WALL (  265876 calls)
     interpolate  :      0.14s CPU      0.17s WALL (      66 calls)
     davcio       :      0.00s CPU      0.09s WALL (     128 calls)


     PAW routines
     PAW_pot      :     17.68s CPU     19.39s WALL (      17 calls)
     PAW_symme    :      0.02s CPU      0.02s WALL (      33 calls)

     PWSCF        :  4m23.13s CPU     4m25.45s WALL


   This run was terminated on:  23:32:38  11May2015            

=------------------------------------------------------------------------------=
   JOB DONE.
=------------------------------------------------------------------------------=
