
     Program PWSCF v.5.1.2 starts on 11May2015 at 20:58:36 

     This program is part of the open-source Quantum ESPRESSO suite
     for quantum simulation of materials; please cite
         "P. Giannozzi et al., J. Phys.:Condens. Matter 21 395502 (2009);
          URL http://www.quantum-espresso.org", 
     in publications or presentations arising from this work. More details at
     http://www.quantum-espresso.org/quote

     Serial version
     Reading input from Fe_HCP_5.4_173_9_5.pw.in

     Current dimensions of program PWSCF are:
     Max number of different atomic species (ntypx) = 10
     Max number of k-points (npk) =  40000
     Max angular momentum in pseudopotentials (lmaxx) =  3
               file Fe.pbe-spn-kjpaw_psl.0.2.1.UPF: wavefunction(s)  3D renormalized

     G-vector sticks info
     --------------------
     sticks:   dense  smooth     PW     G-vecs:    dense   smooth      PW
     Sum         499     397    121                15713    11191    1979

     Generating pointlists ...
     new r_m :   0.4125 (alat units)  2.2275 (a.u.) for type    1


     bravais-lattice index     =            4
     lattice parameter (alat)  =       5.4000  a.u.
     unit-cell volume          =     235.9163 (a.u.)^3
     number of atoms/cell      =            2
     number of atomic types    =            1
     number of electrons       =        32.00
     number of Kohn-Sham states=           20
     kinetic-energy cutoff     =      50.0000  Ry
     charge density cutoff     =     250.0000  Ry
     convergence threshold     =      1.0E-08
     mixing beta               =       0.7000
     number of iterations used =            8  plain     mixing
     Exchange-correlation      =  SLA  PW   PBX  PBC ( 1  4  3  4 0 0)

     celldm(1)=   5.400000  celldm(2)=   0.000000  celldm(3)=   1.730000
     celldm(4)=   0.000000  celldm(5)=   0.000000  celldm(6)=   0.000000

     crystal axes: (cart. coord. in units of alat)
               a(1) = (   1.000000   0.000000   0.000000 )  
               a(2) = (  -0.500000   0.866025   0.000000 )  
               a(3) = (   0.000000   0.000000   1.730000 )  

     reciprocal axes: (cart. coord. in units 2 pi/alat)
               b(1) = (  1.000000  0.577350 -0.000000 )  
               b(2) = (  0.000000  1.154701  0.000000 )  
               b(3) = (  0.000000 -0.000000  0.578035 )  


     PseudoPot. # 1 for Fe read from file:
     ./Fe.pbe-spn-kjpaw_psl.0.2.1.UPF
     MD5 check sum: a0a08122d52b112de96d1da1d7dd020f
     Pseudo is Projector augmented-wave + core cor, Zval = 16.0
     Generated using "atomic" code by A. Dal Corso  v.5.0.2 svn rev. 9415
     Shape of augmentation charge: PSQ
     Using radial grid of 1191 points,  6 beta functions with: 
                l(1) =   0
                l(2) =   0
                l(3) =   1
                l(4) =   1
                l(5) =   2
                l(6) =   2
     Q(r) pseudized with 0 coefficients 


     atomic species   valence    mass     pseudopotential
        Fe            16.00    55.85000     Fe( 1.00)

     Starting magnetic structure 
     atomic species   magnetization
        Fe           0.700

     24 Sym. Ops., with inversion, found (12 have fractional translation)



   Cartesian axes

     site n.     atom                  positions (alat units)
         1           Fe  tau(   1) = (  -0.0000000   0.5773503   0.4325000  )
         2           Fe  tau(   2) = (   0.5000000   0.2886751   1.2975000  )

     number of k points=    72  Marzari-Vanderbilt smearing, width (Ry)=  0.0250
                       cart. coord. in units 2pi/alat
        k(    1) = (   0.0000000   0.0000000   0.0000000), wk =   0.0024691
        k(    2) = (   0.0000000   0.0000000   0.1156069), wk =   0.0049383
        k(    3) = (   0.0000000   0.0000000   0.2312139), wk =   0.0049383
        k(    4) = (   0.0000000   0.1283001   0.0000000), wk =   0.0148148
        k(    5) = (   0.0000000   0.1283001   0.1156069), wk =   0.0296296
        k(    6) = (   0.0000000   0.1283001   0.2312139), wk =   0.0296296
        k(    7) = (   0.0000000   0.2566001   0.0000000), wk =   0.0148148
        k(    8) = (   0.0000000   0.2566001   0.1156069), wk =   0.0296296
        k(    9) = (   0.0000000   0.2566001   0.2312139), wk =   0.0296296
        k(   10) = (   0.0000000   0.3849002   0.0000000), wk =   0.0148148
        k(   11) = (   0.0000000   0.3849002   0.1156069), wk =   0.0296296
        k(   12) = (   0.0000000   0.3849002   0.2312139), wk =   0.0296296
        k(   13) = (   0.0000000   0.5132002   0.0000000), wk =   0.0148148
        k(   14) = (   0.0000000   0.5132002   0.1156069), wk =   0.0296296
        k(   15) = (   0.0000000   0.5132002   0.2312139), wk =   0.0296296
        k(   16) = (   0.1111111   0.1924501   0.0000000), wk =   0.0148148
        k(   17) = (   0.1111111   0.1924501   0.1156069), wk =   0.0296296
        k(   18) = (   0.1111111   0.1924501   0.2312139), wk =   0.0296296
        k(   19) = (   0.1111111   0.3207501   0.0000000), wk =   0.0296296
        k(   20) = (   0.1111111   0.3207501   0.1156069), wk =   0.0592593
        k(   21) = (   0.1111111   0.3207501   0.2312139), wk =   0.0592593
        k(   22) = (   0.1111111   0.4490502   0.0000000), wk =   0.0296296
        k(   23) = (   0.1111111   0.4490502   0.1156069), wk =   0.0592593
        k(   24) = (   0.1111111   0.4490502   0.2312139), wk =   0.0592593
        k(   25) = (   0.1111111   0.5773503   0.0000000), wk =   0.0148148
        k(   26) = (   0.1111111   0.5773503   0.1156069), wk =   0.0296296
        k(   27) = (   0.1111111   0.5773503   0.2312139), wk =   0.0296296
        k(   28) = (   0.2222222   0.3849002   0.0000000), wk =   0.0148148
        k(   29) = (   0.2222222   0.3849002   0.1156069), wk =   0.0296296
        k(   30) = (   0.2222222   0.3849002   0.2312139), wk =   0.0296296
        k(   31) = (   0.2222222   0.5132002   0.0000000), wk =   0.0296296
        k(   32) = (   0.2222222   0.5132002   0.1156069), wk =   0.0592593
        k(   33) = (   0.2222222   0.5132002   0.2312139), wk =   0.0592593
        k(   34) = (   0.3333333   0.5773503   0.0000000), wk =   0.0049383
        k(   35) = (   0.3333333   0.5773503   0.1156069), wk =   0.0098765
        k(   36) = (   0.3333333   0.5773503   0.2312139), wk =   0.0098765
        k(   37) = (   0.0000000   0.0000000   0.0000000), wk =   0.0024691
        k(   38) = (   0.0000000   0.0000000   0.1156069), wk =   0.0049383
        k(   39) = (   0.0000000   0.0000000   0.2312139), wk =   0.0049383
        k(   40) = (   0.0000000   0.1283001   0.0000000), wk =   0.0148148
        k(   41) = (   0.0000000   0.1283001   0.1156069), wk =   0.0296296
        k(   42) = (   0.0000000   0.1283001   0.2312139), wk =   0.0296296
        k(   43) = (   0.0000000   0.2566001   0.0000000), wk =   0.0148148
        k(   44) = (   0.0000000   0.2566001   0.1156069), wk =   0.0296296
        k(   45) = (   0.0000000   0.2566001   0.2312139), wk =   0.0296296
        k(   46) = (   0.0000000   0.3849002   0.0000000), wk =   0.0148148
        k(   47) = (   0.0000000   0.3849002   0.1156069), wk =   0.0296296
        k(   48) = (   0.0000000   0.3849002   0.2312139), wk =   0.0296296
        k(   49) = (   0.0000000   0.5132002   0.0000000), wk =   0.0148148
        k(   50) = (   0.0000000   0.5132002   0.1156069), wk =   0.0296296
        k(   51) = (   0.0000000   0.5132002   0.2312139), wk =   0.0296296
        k(   52) = (   0.1111111   0.1924501   0.0000000), wk =   0.0148148
        k(   53) = (   0.1111111   0.1924501   0.1156069), wk =   0.0296296
        k(   54) = (   0.1111111   0.1924501   0.2312139), wk =   0.0296296
        k(   55) = (   0.1111111   0.3207501   0.0000000), wk =   0.0296296
        k(   56) = (   0.1111111   0.3207501   0.1156069), wk =   0.0592593
        k(   57) = (   0.1111111   0.3207501   0.2312139), wk =   0.0592593
        k(   58) = (   0.1111111   0.4490502   0.0000000), wk =   0.0296296
        k(   59) = (   0.1111111   0.4490502   0.1156069), wk =   0.0592593
        k(   60) = (   0.1111111   0.4490502   0.2312139), wk =   0.0592593
        k(   61) = (   0.1111111   0.5773503   0.0000000), wk =   0.0148148
        k(   62) = (   0.1111111   0.5773503   0.1156069), wk =   0.0296296
        k(   63) = (   0.1111111   0.5773503   0.2312139), wk =   0.0296296
        k(   64) = (   0.2222222   0.3849002   0.0000000), wk =   0.0148148
        k(   65) = (   0.2222222   0.3849002   0.1156069), wk =   0.0296296
        k(   66) = (   0.2222222   0.3849002   0.2312139), wk =   0.0296296
        k(   67) = (   0.2222222   0.5132002   0.0000000), wk =   0.0296296
        k(   68) = (   0.2222222   0.5132002   0.1156069), wk =   0.0592593
        k(   69) = (   0.2222222   0.5132002   0.2312139), wk =   0.0592593
        k(   70) = (   0.3333333   0.5773503   0.0000000), wk =   0.0049383
        k(   71) = (   0.3333333   0.5773503   0.1156069), wk =   0.0098765
        k(   72) = (   0.3333333   0.5773503   0.2312139), wk =   0.0098765

     Dense  grid:    15713 G-vectors     FFT dimensions: (  27,  27,  48)

     Smooth grid:    11191 G-vectors     FFT dimensions: (  25,  25,  45)

     Largest allocated arrays     est. size (Mb)     dimensions
        Kohn-Sham Wavefunctions         0.44 Mb     (    1434,   20)
        NL pseudopotentials             0.79 Mb     (    1434,   36)
        Each V/rho on FFT grid          1.07 Mb     (   34992,   2)
        Each G-vector array             0.12 Mb     (   15713)
        G-vector shells                 0.01 Mb     (     824)
     Largest temporary arrays     est. size (Mb)     dimensions
        Auxiliary wavefunctions         1.75 Mb     (    1434,   80)
        Each subspace H/S matrix        0.10 Mb     (      80,   80)
        Each <psi_i|beta_j> matrix      0.01 Mb     (      36,   20)
        Arrays for rho mixing           4.27 Mb     (   34992,    8)

     Check: negative/imaginary core charge=   -0.000319    0.000000

     Initial potential from superposition of free atoms

     starting charge   31.99912, renormalised to   32.00000
     Starting wfc are   26 randomized atomic wfcs

     total cpu time spent up to now is        5.1 secs

     Self-consistent Calculation

     iteration #  1     ecut=    50.00 Ry     beta=0.70
     Davidson diagonalization with overlap
     ethr =  1.00E-02,  avg # of iterations =  2.0

     negative rho (up, down):  0.000E+00 1.065E-03

     Magnetic moment per site:
     atom:    1    charge:   14.6030    magn:    5.9390    constr:    0.0000
     atom:    2    charge:   14.6030    magn:    5.9390    constr:    0.0000

     total cpu time spent up to now is       12.4 secs

     total energy              =    -657.96916622 Ry
     Harris-Foulkes estimate   =    -656.24518000 Ry
     estimated scf accuracy    <       2.84183344 Ry

     total magnetization       =     8.00 Bohr mag/cell
     absolute magnetization    =     8.25 Bohr mag/cell

     iteration #  2     ecut=    50.00 Ry     beta=0.70
     Davidson diagonalization with overlap
     ethr =  8.88E-03,  avg # of iterations =  1.6

     negative rho (up, down):  0.000E+00 1.057E-03

     Magnetic moment per site:
     atom:    1    charge:   14.8247    magn:    4.0067    constr:    0.0000
     atom:    2    charge:   14.8247    magn:    4.0067    constr:    0.0000

     total cpu time spent up to now is       19.3 secs

     total energy              =    -658.15315784 Ry
     Harris-Foulkes estimate   =    -658.17912131 Ry
     estimated scf accuracy    <       0.80740124 Ry

     total magnetization       =     6.62 Bohr mag/cell
     absolute magnetization    =     6.89 Bohr mag/cell

     iteration #  3     ecut=    50.00 Ry     beta=0.70
     Davidson diagonalization with overlap
     ethr =  2.52E-03,  avg # of iterations =  3.1

     negative rho (up, down):  0.000E+00 1.232E-03

     Magnetic moment per site:
     atom:    1    charge:   14.7100    magn:    3.0554    constr:    0.0000
     atom:    2    charge:   14.7100    magn:    3.0554    constr:    0.0000

     total cpu time spent up to now is       27.5 secs

     total energy              =    -658.18045380 Ry
     Harris-Foulkes estimate   =    -658.64564714 Ry
     estimated scf accuracy    <       1.29678114 Ry

     total magnetization       =     6.63 Bohr mag/cell
     absolute magnetization    =     6.90 Bohr mag/cell

     iteration #  4     ecut=    50.00 Ry     beta=0.70
     Davidson diagonalization with overlap
     ethr =  2.52E-03,  avg # of iterations =  2.7

     negative rho (up, down):  0.000E+00 1.051E-03

     Magnetic moment per site:
     atom:    1    charge:   14.7630    magn:    3.0643    constr:    0.0000
     atom:    2    charge:   14.7630    magn:    3.0643    constr:    0.0000

     total cpu time spent up to now is       35.3 secs

     total energy              =    -658.40783658 Ry
     Harris-Foulkes estimate   =    -658.40809360 Ry
     estimated scf accuracy    <       0.00656905 Ry

     total magnetization       =     5.98 Bohr mag/cell
     absolute magnetization    =     6.31 Bohr mag/cell

     iteration #  5     ecut=    50.00 Ry     beta=0.70
     Davidson diagonalization with overlap
     ethr =  2.05E-05,  avg # of iterations =  3.3

     negative rho (up, down):  0.000E+00 1.047E-03

     Magnetic moment per site:
     atom:    1    charge:   14.7573    magn:    3.0640    constr:    0.0000
     atom:    2    charge:   14.7573    magn:    3.0640    constr:    0.0000

     total cpu time spent up to now is       45.5 secs

     total energy              =    -658.41455790 Ry
     Harris-Foulkes estimate   =    -658.41366989 Ry
     estimated scf accuracy    <       0.00076001 Ry

     total magnetization       =     6.01 Bohr mag/cell
     absolute magnetization    =     6.31 Bohr mag/cell

     iteration #  6     ecut=    50.00 Ry     beta=0.70
     Davidson diagonalization with overlap
     ethr =  2.38E-06,  avg # of iterations =  2.2

     negative rho (up, down):  0.000E+00 9.930E-04

     Magnetic moment per site:
     atom:    1    charge:   14.7573    magn:    3.0499    constr:    0.0000
     atom:    2    charge:   14.7573    magn:    3.0499    constr:    0.0000

     total cpu time spent up to now is       52.7 secs

     total energy              =    -658.41259352 Ry
     Harris-Foulkes estimate   =    -658.41479203 Ry
     estimated scf accuracy    <       0.00051969 Ry

     total magnetization       =     6.01 Bohr mag/cell
     absolute magnetization    =     6.30 Bohr mag/cell

     iteration #  7     ecut=    50.00 Ry     beta=0.70
     Davidson diagonalization with overlap
     ethr =  1.62E-06,  avg # of iterations =  3.4

     negative rho (up, down):  0.000E+00 1.024E-03

     Magnetic moment per site:
     atom:    1    charge:   14.7571    magn:    3.0592    constr:    0.0000
     atom:    2    charge:   14.7571    magn:    3.0592    constr:    0.0000

     total cpu time spent up to now is       62.3 secs

     total energy              =    -658.41562508 Ry
     Harris-Foulkes estimate   =    -658.41375902 Ry
     estimated scf accuracy    <       0.00053242 Ry

     total magnetization       =     5.99 Bohr mag/cell
     absolute magnetization    =     6.25 Bohr mag/cell

     iteration #  8     ecut=    50.00 Ry     beta=0.70
     Davidson diagonalization with overlap
     ethr =  1.62E-06,  avg # of iterations =  2.3

     negative rho (up, down):  0.000E+00 1.023E-03

     Magnetic moment per site:
     atom:    1    charge:   14.7574    magn:    3.0584    constr:    0.0000
     atom:    2    charge:   14.7574    magn:    3.0584    constr:    0.0000

     total cpu time spent up to now is       70.3 secs

     total energy              =    -658.41579957 Ry
     Harris-Foulkes estimate   =    -658.41581283 Ry
     estimated scf accuracy    <       0.00025640 Ry

     total magnetization       =     5.99 Bohr mag/cell
     absolute magnetization    =     6.27 Bohr mag/cell

     iteration #  9     ecut=    50.00 Ry     beta=0.70
     Davidson diagonalization with overlap
     ethr =  8.01E-07,  avg # of iterations =  1.0

     negative rho (up, down):  0.000E+00 1.021E-03

     Magnetic moment per site:
     atom:    1    charge:   14.7577    magn:    3.0566    constr:    0.0000
     atom:    2    charge:   14.7577    magn:    3.0566    constr:    0.0000

     total cpu time spent up to now is       76.8 secs

     total energy              =    -658.41585792 Ry
     Harris-Foulkes estimate   =    -658.41580656 Ry
     estimated scf accuracy    <       0.00026337 Ry

     total magnetization       =     5.99 Bohr mag/cell
     absolute magnetization    =     6.26 Bohr mag/cell

     iteration # 10     ecut=    50.00 Ry     beta=0.70
     Davidson diagonalization with overlap
     ethr =  8.01E-07,  avg # of iterations =  1.1

     negative rho (up, down):  0.000E+00 1.006E-03

     Magnetic moment per site:
     atom:    1    charge:   14.7595    magn:    3.0410    constr:    0.0000
     atom:    2    charge:   14.7595    magn:    3.0410    constr:    0.0000

     total cpu time spent up to now is       83.4 secs

     total energy              =    -658.41565558 Ry
     Harris-Foulkes estimate   =    -658.41586319 Ry
     estimated scf accuracy    <       0.00020600 Ry

     total magnetization       =     5.99 Bohr mag/cell
     absolute magnetization    =     6.26 Bohr mag/cell

     iteration # 11     ecut=    50.00 Ry     beta=0.70
     Davidson diagonalization with overlap
     ethr =  6.44E-07,  avg # of iterations =  2.9

     negative rho (up, down):  0.000E+00 1.008E-03

     Magnetic moment per site:
     atom:    1    charge:   14.7588    magn:    3.0448    constr:    0.0000
     atom:    2    charge:   14.7588    magn:    3.0448    constr:    0.0000

     total cpu time spent up to now is       91.6 secs

     total energy              =    -658.41609003 Ry
     Harris-Foulkes estimate   =    -658.41585723 Ry
     estimated scf accuracy    <       0.00010723 Ry

     total magnetization       =     5.98 Bohr mag/cell
     absolute magnetization    =     6.24 Bohr mag/cell

     iteration # 12     ecut=    50.00 Ry     beta=0.70
     Davidson diagonalization with overlap
     ethr =  3.35E-07,  avg # of iterations =  2.0

     negative rho (up, down):  0.000E+00 1.009E-03

     Magnetic moment per site:
     atom:    1    charge:   14.7582    magn:    3.0462    constr:    0.0000
     atom:    2    charge:   14.7582    magn:    3.0462    constr:    0.0000

     total cpu time spent up to now is       98.2 secs

     total energy              =    -658.41611295 Ry
     Harris-Foulkes estimate   =    -658.41609912 Ry
     estimated scf accuracy    <       0.00000393 Ry

     total magnetization       =     5.98 Bohr mag/cell
     absolute magnetization    =     6.24 Bohr mag/cell

     iteration # 13     ecut=    50.00 Ry     beta=0.70
     Davidson diagonalization with overlap
     ethr =  1.23E-08,  avg # of iterations =  3.1

     negative rho (up, down):  0.000E+00 1.009E-03

     Magnetic moment per site:
     atom:    1    charge:   14.7585    magn:    3.0459    constr:    0.0000
     atom:    2    charge:   14.7585    magn:    3.0459    constr:    0.0000

     total cpu time spent up to now is      106.9 secs

     total energy              =    -658.41611646 Ry
     Harris-Foulkes estimate   =    -658.41611600 Ry
     estimated scf accuracy    <       0.00000503 Ry

     total magnetization       =     5.98 Bohr mag/cell
     absolute magnetization    =     6.24 Bohr mag/cell

     iteration # 14     ecut=    50.00 Ry     beta=0.70
     Davidson diagonalization with overlap
     ethr =  1.23E-08,  avg # of iterations =  1.7

     negative rho (up, down):  0.000E+00 1.008E-03

     Magnetic moment per site:
     atom:    1    charge:   14.7586    magn:    3.0452    constr:    0.0000
     atom:    2    charge:   14.7586    magn:    3.0452    constr:    0.0000

     total cpu time spent up to now is      113.5 secs

     total energy              =    -658.41611731 Ry
     Harris-Foulkes estimate   =    -658.41611681 Ry
     estimated scf accuracy    <       0.00000137 Ry

     total magnetization       =     5.98 Bohr mag/cell
     absolute magnetization    =     6.24 Bohr mag/cell

     iteration # 15     ecut=    50.00 Ry     beta=0.70
     Davidson diagonalization with overlap
     ethr =  4.27E-09,  avg # of iterations =  2.2

     negative rho (up, down):  0.000E+00 1.008E-03

     Magnetic moment per site:
     atom:    1    charge:   14.7586    magn:    3.0450    constr:    0.0000
     atom:    2    charge:   14.7586    magn:    3.0450    constr:    0.0000

     total cpu time spent up to now is      120.6 secs

     total energy              =    -658.41611781 Ry
     Harris-Foulkes estimate   =    -658.41611772 Ry
     estimated scf accuracy    <       0.00000003 Ry

     total magnetization       =     5.98 Bohr mag/cell
     absolute magnetization    =     6.24 Bohr mag/cell

     iteration # 16     ecut=    50.00 Ry     beta=0.70
     Davidson diagonalization with overlap
     ethr =  9.28E-11,  avg # of iterations =  3.6

     negative rho (up, down):  0.000E+00 1.008E-03

     Magnetic moment per site:
     atom:    1    charge:   14.7586    magn:    3.0449    constr:    0.0000
     atom:    2    charge:   14.7586    magn:    3.0449    constr:    0.0000

     total cpu time spent up to now is      130.3 secs

     total energy              =    -658.41611790 Ry
     Harris-Foulkes estimate   =    -658.41611786 Ry
     estimated scf accuracy    <       0.00000001 Ry

     total magnetization       =     5.98 Bohr mag/cell
     absolute magnetization    =     6.24 Bohr mag/cell

     iteration # 17     ecut=    50.00 Ry     beta=0.70
     Davidson diagonalization with overlap
     ethr =  3.71E-11,  avg # of iterations =  2.9

     negative rho (up, down):  0.000E+00 1.008E-03

     Magnetic moment per site:
     atom:    1    charge:   14.7586    magn:    3.0448    constr:    0.0000
     atom:    2    charge:   14.7586    magn:    3.0448    constr:    0.0000

     total cpu time spent up to now is      137.8 secs

     End of self-consistent calculation

 ------ SPIN UP ------------


          k = 0.0000 0.0000 0.0000 (  1377 PWs)   bands (ev):

   -77.6291 -77.6220 -43.6951 -43.6951 -43.6862 -43.6862 -43.5831 -43.5144
     4.0868   7.1746   8.4896   8.4896   8.6138   8.6138   8.6941   8.6941
     8.7585   9.1553   9.1553  10.4242

          k = 0.0000 0.0000 0.1156 (  1383 PWs)   bands (ev):

   -77.6287 -77.6226 -43.6941 -43.6941 -43.6875 -43.6875 -43.5762 -43.5220
     4.3467   6.9649   8.4462   8.4462   8.5702   8.5702   8.7212   8.7943
     8.7943   9.1441   9.1441   9.4830

          k = 0.0000 0.0000 0.2312 (  1401 PWs)   bands (ev):

   -77.6270 -77.6247 -43.6924 -43.6924 -43.6899 -43.6899 -43.5603 -43.5397
     5.0896   6.1428   8.4310   8.4310   8.4849   8.4849   8.6552   8.7474
     8.9575   8.9575   9.0847   9.0847

          k = 0.0000 0.1283 0.0000 (  1379 PWs)   bands (ev):

   -77.6281 -77.6211 -43.7041 -43.6977 -43.6961 -43.6881 -43.5801 -43.5150
     4.4106   7.3807   8.3801   8.5169   8.5506   8.6095   8.6355   8.7241
     8.7443   8.8703   9.1713  11.2526

          k = 0.0000 0.1283 0.1156 (  1390 PWs)   bands (ev):

   -77.6277 -77.6218 -43.7033 -43.6970 -43.6970 -43.6894 -43.5738 -43.5222
     4.6642   7.1924   8.3529   8.3915   8.5280   8.5804   8.6679   8.7112
     8.7881   8.9293   9.1565  10.2160

          k = 0.0000 0.1283 0.2312 (  1404 PWs)   bands (ev):

   -77.6261 -77.6237 -43.7018 -43.6994 -43.6948 -43.6922 -43.5580 -43.5387
     5.3882   6.4105   8.2916   8.3359   8.5164   8.5596   8.5787   8.6173
     8.9560   9.0894   9.1006   9.4186

          k = 0.0000 0.2566 0.0000 (  1401 PWs)   bands (ev):

   -77.6253 -77.6194 -43.7275 -43.7194 -43.7045 -43.6934 -43.5723 -43.5184
     5.3251   7.7094   7.9412   8.2863   8.4845   8.5050   8.5275   8.9280
     9.0142   9.1561   9.1947  12.7792

          k = 0.0000 0.2566 0.1156 (  1413 PWs)   bands (ev):

   -77.6249 -77.6202 -43.7271 -43.7205 -43.7039 -43.6946 -43.5672 -43.5237
     5.5496   7.5647   7.9399   8.2481   8.4596   8.5379   8.5967   8.9167
     8.9880   9.1784   9.1939  11.2026

          k = 0.0000 0.2566 0.2312 (  1401 PWs)   bands (ev):

   -77.6232 -77.6215 -43.7250 -43.7221 -43.7013 -43.6977 -43.5531 -43.5365
     6.1744   6.9776   8.0474   8.1771   8.5083   8.5883   8.6344   8.7780
     9.0643   9.1508   9.3526   9.9290

          k = 0.0000 0.3849 0.0000 (  1400 PWs)   bands (ev):

   -77.6216 -77.6174 -43.7533 -43.7442 -43.7117 -43.6994 -43.5618 -43.5224
     6.5382   7.5242   7.5792   8.3464   8.3741   8.3860   8.8605   9.2051
     9.3173   9.3694   9.6895  14.6394

          k = 0.0000 0.3849 0.1156 (  1408 PWs)   bands (ev):

   -77.6212 -77.6179 -43.7529 -43.7457 -43.7110 -43.7005 -43.5580 -43.5259
     6.6297   7.4338   7.7027   8.0761   8.4393   8.7591   8.9319   9.0899
     9.3311   9.3924   9.6270  12.4050

          k = 0.0000 0.3849 0.2312 (  1408 PWs)   bands (ev):

   -77.6202 -77.6189 -43.7515 -43.7487 -43.7080 -43.7038 -43.5472 -43.5353
     6.8699   7.1802   7.8799   7.9868   8.6178   8.8599   9.0576   9.2504
     9.3623   9.3914   9.6372  10.6808

          k = 0.0000 0.5132 0.0000 (  1410 PWs)   bands (ev):

   -77.6191 -77.6164 -43.7705 -43.7614 -43.7167 -43.7031 -43.5527 -43.5275
     7.1802   7.3226   7.3894   8.2316   8.2948   8.9087   9.1180   9.2064
     9.5789   9.6300  10.8457  13.4937

          k = 0.0000 0.5132 0.1156 (  1416 PWs)   bands (ev):

   -77.6190 -77.6166 -43.7701 -43.7628 -43.7158 -43.7045 -43.5499 -43.5298
     7.0175   7.3379   7.6202   7.9559   8.3715   9.0911   9.1048   9.4735
     9.5863   9.6281  10.7796  13.1268

          k = 0.0000 0.5132 0.2312 (  1406 PWs)   bands (ev):

   -77.6181 -77.6172 -43.7682 -43.7657 -43.7121 -43.7075 -43.5427 -43.5353
     7.0006   7.1696   7.7967   7.8350   8.5806   8.8586   9.4461   9.6021
     9.6184   9.8210  10.9787  11.9933

          k = 0.1111 0.1925 0.0000 (  1402 PWs)   bands (ev):

   -77.6263 -77.6199 -43.7187 -43.7136 -43.7017 -43.6941 -43.5748 -43.5173
     5.0331   7.7028   8.1116   8.2099   8.4424   8.4673   8.6689   8.8740
     8.8779   9.1003   9.1732  12.3352

          k = 0.1111 0.1925 0.1156 (  1409 PWs)   bands (ev):

   -77.6258 -77.6207 -43.7185 -43.7139 -43.7011 -43.6948 -43.5695 -43.5232
     5.2705   7.5408   8.0493   8.2113   8.4554   8.5068   8.6242   8.8321
     8.9415   9.1123   9.1779  10.9307

          k = 0.1111 0.1925 0.2312 (  1398 PWs)   bands (ev):

   -77.6241 -77.6220 -43.7169 -43.7150 -43.6994 -43.6971 -43.5545 -43.5370
     5.9417   6.8489   8.1118   8.2030   8.4526   8.5000   8.6307   8.7304
     9.0504   9.1396   9.2817   9.7895

          k = 0.1111 0.3208 0.0000 (  1407 PWs)   bands (ev):

   -77.6229 -77.6181 -43.7410 -43.7353 -43.7113 -43.7010 -43.5656 -43.5210
     6.1479   7.6828   7.8079   8.1711   8.2757   8.5299   8.5372   9.1308
     9.1672   9.3139   9.5685  13.9694

          k = 0.1111 0.3208 0.1156 (  1402 PWs)   bands (ev):

   -77.6224 -77.6184 -43.7407 -43.7358 -43.7101 -43.7021 -43.5611 -43.5249
     6.3188   7.5775   7.8597   8.1331   8.3958   8.5156   8.5543   9.0158
     9.2280   9.3579   9.5580  11.9852

          k = 0.1111 0.3208 0.2312 (  1398 PWs)   bands (ev):

   -77.6211 -77.6195 -43.7395 -43.7377 -43.7079 -43.7047 -43.5492 -43.5357
     6.7531   7.2409   7.9900   8.1084   8.4977   8.5298   8.6406   8.8199
     9.4221   9.5130   9.5369  10.4094

          k = 0.1111 0.4491 0.0000 (  1408 PWs)   bands (ev):

   -77.6197 -77.6165 -43.7614 -43.7539 -43.7193 -43.7069 -43.5553 -43.5263
     7.1543   7.4208   7.5848   8.1921   8.3532   8.4431   8.8788   9.1599
     9.4396   9.6558  10.4122  14.9145

          k = 0.1111 0.4491 0.1156 (  1411 PWs)   bands (ev):

   -77.6194 -77.6169 -43.7611 -43.7551 -43.7184 -43.7084 -43.5520 -43.5286
     7.0815   7.4648   7.6954   8.0006   8.3437   8.7882   8.9146   9.0611
     9.4670   9.7130  10.4047  13.3755

          k = 0.1111 0.4491 0.2312 (  1410 PWs)   bands (ev):

   -77.6187 -77.6176 -43.7599 -43.7576 -43.7154 -43.7117 -43.5438 -43.5352
     7.1096   7.2873   7.8738   7.9682   8.4738   8.7479   9.0409   9.0888
     9.6300   9.7916  10.6343  11.6845

          k = 0.1111 0.5774 0.0000 (  1422 PWs)   bands (ev):

   -77.6186 -77.6162 -43.7701 -43.7610 -43.7227 -43.7098 -43.5499 -43.5302
     7.3356   7.3950   7.4651   8.2096   8.2341   8.8034   8.9966   9.1561
     9.6152   9.7455  11.8371  12.8325

          k = 0.1111 0.5774 0.1156 (  1415 PWs)   bands (ev):

   -77.6183 -77.6163 -43.7696 -43.7622 -43.7215 -43.7110 -43.5474 -43.5314
     7.1402   7.4556   7.7029   7.9453   8.2684   8.9984   9.0729   9.1336
     9.6224   9.8112  11.8885  12.8015

          k = 0.1111 0.5774 0.2312 (  1411 PWs)   bands (ev):

   -77.6176 -77.6168 -43.7680 -43.7651 -43.7183 -43.7142 -43.5414 -43.5354
     7.1197   7.2882   7.8500   7.8933   8.4279   8.7419   9.2728   9.3151
     9.6936   9.8584  12.1672  12.6088

          k = 0.2222 0.3849 0.0000 (  1412 PWs)   bands (ev):

   -77.6200 -77.6167 -43.7514 -43.7506 -43.7221 -43.7138 -43.5563 -43.5259
     7.2206   7.5044   7.8892   7.9991   8.1196   8.4118   8.6563   9.1082
     9.3136   9.7082  10.3704  15.4285

          k = 0.2222 0.3849 0.1156 (  1410 PWs)   bands (ev):

   -77.6197 -77.6170 -43.7516 -43.7509 -43.7218 -43.7148 -43.5527 -43.5281
     7.2329   7.4736   7.8998   8.0707   8.2918   8.3624   8.6473   8.9935
     9.3936   9.7483  10.4051  13.3378

          k = 0.2222 0.3849 0.2312 (  1408 PWs)   bands (ev):

   -77.6188 -77.6178 -43.7515 -43.7514 -43.7201 -43.7173 -43.5444 -43.5352
     7.2925   7.3911   7.9992   8.1229   8.3695   8.4642   8.6557   8.7723
     9.6562   9.7945  10.6570  11.6350

          k = 0.2222 0.5132 0.0000 (  1428 PWs)   bands (ev):

   -77.6180 -77.6164 -43.7612 -43.7539 -43.7339 -43.7230 -43.5474 -43.5319
     7.4275   7.7164   7.7761   8.1044   8.2351   8.2650   8.8265   9.0700
     9.5414   9.7994  11.8928  14.4271

          k = 0.2222 0.5132 0.1156 (  1415 PWs)   bands (ev):

   -77.6177 -77.6163 -43.7604 -43.7545 -43.7330 -43.7242 -43.5450 -43.5326
     7.3914   7.7388   7.8171   8.0040   8.1719   8.4889   8.8400   8.9714
     9.5916   9.8343  12.0308  14.3543

          k = 0.2222 0.5132 0.2312 (  1419 PWs)   bands (ev):

   -77.6173 -77.6168 -43.7589 -43.7566 -43.7309 -43.7275 -43.5404 -43.5355
     7.4086   7.5480   7.9566   8.0938   8.1945   8.4683   8.8682   8.8742
     9.7390   9.8523  12.5145  13.4555

          k = 0.3333 0.5774 0.0000 (  1434 PWs)   bands (ev):

   -77.6168 -77.6168 -43.7547 -43.7461 -43.7461 -43.7372 -43.5393 -43.5393
     7.4613   7.9834   7.9834   8.0404   8.1172   8.1172   8.7786   9.0265
     9.6956   9.6956  14.0261  14.2183

          k = 0.3333 0.5774 0.1156 (  1425 PWs)   bands (ev):

   -77.6166 -77.6166 -43.7530 -43.7463 -43.7463 -43.7384 -43.5384 -43.5384
     7.5374   7.8709   7.8709   8.0281   8.2319   8.2319   8.7585   8.9254
     9.7355   9.7355  14.3479  14.3479

          k = 0.3333 0.5774 0.2312 (  1428 PWs)   bands (ev):

   -77.6167 -77.6167 -43.7484 -43.7472 -43.7472 -43.7430 -43.5373 -43.5373
     7.7336   7.7749   7.7749   7.9387   8.3299   8.3299   8.7250   8.7648
     9.8027   9.8027  14.6736  14.6736

 ------ SPIN DOWN ----------


          k = 0.0000 0.0000 0.0000 (  1377 PWs)   bands (ev):

   -74.1667 -74.1583 -40.2851 -40.2598 -40.2598 -40.2497 -40.2497 -40.2048
     4.4163   8.2356  10.4906  10.5951  11.2319  11.2319  11.4047  11.4047
    12.4511  12.4511  13.0636  13.0636

          k = 0.0000 0.0000 0.1156 (  1383 PWs)   bands (ev):

   -74.1661 -74.1590 -40.2772 -40.2587 -40.2587 -40.2510 -40.2510 -40.2133
     4.6771   7.7443  10.2880  10.4296  11.2280  11.2280  11.3707  11.3707
    12.5318  12.5318  13.0248  13.0248

          k = 0.0000 0.0000 0.2312 (  1401 PWs)   bands (ev):

   -74.1641 -74.1615 -40.2580 -40.2567 -40.2567 -40.2537 -40.2537 -40.2337
     5.4316   6.5686  10.1617  10.2828  11.2421  11.2421  11.2983  11.2983
    12.7171  12.7171  12.9042  12.9042

          k = 0.0000 0.1283 0.0000 (  1379 PWs)   bands (ev):

   -74.1654 -74.1573 -40.2816 -40.2704 -40.2629 -40.2611 -40.2519 -40.2055
     4.7414   8.4840  10.4520  10.5336  11.1355  11.3083  11.3768  11.5384
    12.3140  12.3622  13.0902  13.5338

          k = 0.0000 0.1283 0.1156 (  1390 PWs)   bands (ev):

   -74.1648 -74.1582 -40.2765 -40.2673 -40.2625 -40.2620 -40.2533 -40.2132
     4.9983   8.0162  10.2142  10.4827  11.1090  11.2871  11.3695  11.5033
    12.4147  12.4558  13.0388  13.2142

          k = 0.0000 0.1283 0.2312 (  1404 PWs)   bands (ev):

   -74.1630 -74.1604 -40.2702 -40.2660 -40.2594 -40.2564 -40.2529 -40.2315
     5.7429   6.8677  10.1639  10.3278  11.1120  11.1940  11.3785  11.4313
    12.6574  12.6687  12.8884  12.9284

          k = 0.0000 0.2566 0.0000 (  1401 PWs)   bands (ev):

   -74.1621 -74.1553 -40.2978 -40.2885 -40.2724 -40.2708 -40.2580 -40.2091
     5.6778   9.0856  10.2242  10.5016  10.9249  11.2891  11.7687  11.8931
    12.0205  12.1683  13.1281  14.6498

          k = 0.0000 0.2566 0.1156 (  1413 PWs)   bands (ev):

   -74.1615 -74.1561 -40.2988 -40.2903 -40.2699 -40.2649 -40.2593 -40.2146
     5.9222   8.7148  10.0764  10.5299  10.8615  11.1910  11.7447  11.8526
    12.1796  12.2986  13.0498  13.6183

          k = 0.0000 0.2566 0.2312 (  1401 PWs)   bands (ev):

   -74.1597 -74.1577 -40.2974 -40.2936 -40.2669 -40.2628 -40.2474 -40.2285
     6.6319   7.6820  10.1633  10.4261  10.8240  11.0001  11.7384  11.7847
    12.5371  12.5626  12.8402  12.9841

          k = 0.0000 0.3849 0.0000 (  1400 PWs)   bands (ev):

   -74.1577 -74.1529 -40.3284 -40.3181 -40.2793 -40.2648 -40.2599 -40.2138
     7.0881   9.5123  10.1029  10.3533  10.7619  11.6883  11.7501  11.9770
    12.2655  12.3334  13.1449  15.5459

          k = 0.0000 0.3849 0.1156 (  1408 PWs)   bands (ev):

   -74.1573 -74.1535 -40.3288 -40.3203 -40.2783 -40.2662 -40.2544 -40.2173
     7.2944   9.3579   9.9751  10.4899  10.6708  11.3989  12.0249  12.0564
    12.2899  12.3388  13.0372  14.1243

          k = 0.0000 0.3849 0.2312 (  1408 PWs)   bands (ev):

   -74.1562 -74.1547 -40.3283 -40.3249 -40.2747 -40.2700 -40.2407 -40.2271
     7.8766   8.6833  10.1107  10.3962  10.7583  11.0692  12.1291  12.2289
    12.4700  12.5064  12.7789  13.0850

          k = 0.0000 0.5132 0.0000 (  1410 PWs)   bands (ev):

   -74.1548 -74.1516 -40.3487 -40.3381 -40.2850 -40.2692 -40.2492 -40.2198
     8.5053   9.4292  10.0827  10.1577  10.8653  11.4566  11.8622  12.6010
    12.6085  12.6681  13.1473  14.6388

          k = 0.0000 0.5132 0.1156 (  1416 PWs)   bands (ev):

   -74.1547 -74.1520 -40.3490 -40.3403 -40.2838 -40.2707 -40.2451 -40.2217
     8.6079   9.3957   9.9906  10.2772  10.8521  11.6469  11.9610  12.4710
    12.6143  12.6569  13.0088  14.1841

          k = 0.0000 0.5132 0.2312 (  1406 PWs)   bands (ev):

   -74.1537 -74.1527 -40.3480 -40.3448 -40.2796 -40.2744 -40.2357 -40.2270
     8.8716   9.1856  10.0681  10.2607  11.1001  11.6271  12.2309  12.5485
    12.5568  12.6545  12.7367  13.2767

          k = 0.1111 0.1925 0.0000 (  1402 PWs)   bands (ev):

   -74.1632 -74.1559 -40.2875 -40.2817 -40.2753 -40.2674 -40.2585 -40.2079
     5.3730   8.9192  10.2826  10.5246  11.0654  11.1344  11.6590  11.8074
    12.0556  12.2840  13.0945  14.3171

          k = 0.1111 0.1925 0.1156 (  1409 PWs)   bands (ev):

   -74.1626 -74.1567 -40.2891 -40.2825 -40.2671 -40.2669 -40.2594 -40.2141
     5.6222   8.5096  10.1142  10.5293  10.9493  11.1390  11.6364  11.7620
    12.2324  12.3633  13.0255  13.5158

          k = 0.1111 0.1925 0.2312 (  1398 PWs)   bands (ev):

   -74.1607 -74.1584 -40.2880 -40.2849 -40.2650 -40.2623 -40.2487 -40.2291
     6.3465   7.4280  10.1694  10.4073  10.8858  11.0187  11.6385  11.6901
    12.5812  12.5829  12.8365  12.9840

          k = 0.1111 0.3208 0.0000 (  1407 PWs)   bands (ev):

   -74.1593 -74.1537 -40.3139 -40.3074 -40.2785 -40.2667 -40.2644 -40.2121
     6.5597   9.4975  10.1552  10.3325  10.8837  11.3217  11.7536  12.0762
    12.1035  12.2727  13.0876  15.4646

          k = 0.1111 0.3208 0.1156 (  1402 PWs)   bands (ev):

   -74.1587 -74.1542 -40.3146 -40.3087 -40.2775 -40.2682 -40.2576 -40.2160
     6.7880   9.2587  10.0147  10.4081  10.8175  11.1344  11.9311  12.0082
    12.2458  12.3149  12.9982  14.0085

          k = 0.1111 0.3208 0.2312 (  1398 PWs)   bands (ev):

   -74.1573 -74.1555 -40.3144 -40.3120 -40.2751 -40.2714 -40.2426 -40.2272
     7.4385   8.3830  10.1684  10.5031  10.6036  10.8684  11.9905  12.1123
    12.4983  12.5328  12.7843  13.1026

          k = 0.1111 0.4491 0.0000 (  1408 PWs)   bands (ev):

   -74.1556 -74.1519 -40.3381 -40.3292 -40.2881 -40.2737 -40.2522 -40.2182
     8.0396   9.6284  10.1382  10.1731  10.8808  11.5165  11.8426  11.8749
    12.4475  12.8139  13.0776  15.7618

          k = 0.1111 0.4491 0.1156 (  1411 PWs)   bands (ev):

   -74.1553 -74.1523 -40.3385 -40.3312 -40.2872 -40.2755 -40.2474 -40.2202
     8.2044   9.5960   9.9667  10.3686  10.7739  11.3769  11.9012  12.0362
    12.5245  12.7041  13.0295  14.6766

          k = 0.1111 0.4491 0.2312 (  1410 PWs)   bands (ev):

   -74.1544 -74.1532 -40.3381 -40.3352 -40.2839 -40.2795 -40.2365 -40.2266
     8.6474   9.2062  10.1057  10.3776  10.7656  11.0664  12.0868  12.3706
    12.4318  12.6627  13.0062  13.5142

          k = 0.1111 0.5774 0.0000 (  1422 PWs)   bands (ev):

   -74.1541 -74.1515 -40.3482 -40.3376 -40.2920 -40.2770 -40.2457 -40.2227
     8.9812   9.4710  10.0383  10.1561  10.9567  11.4182  11.7433  12.4050
    12.4525  13.0721  13.4237  14.3494

          k = 0.1111 0.5774 0.1156 (  1415 PWs)   bands (ev):

   -74.1538 -74.1516 -40.3484 -40.3397 -40.2908 -40.2785 -40.2419 -40.2235
     9.0443   9.4746  10.0154  10.2666  10.8722  11.4810  11.8736  12.4360
    12.4488  12.8412  13.4285  14.2362

          k = 0.1111 0.5774 0.2312 (  1411 PWs)   bands (ev):

   -74.1531 -74.1523 -40.3475 -40.3441 -40.2874 -40.2826 -40.2337 -40.2268
     9.2001   9.3809  10.1153  10.3236  10.9595  11.3677  12.1629  12.4103
    12.4542  12.5456  13.5019  13.8838

          k = 0.2222 0.3849 0.0000 (  1412 PWs)   bands (ev):

   -74.1559 -74.1521 -40.3265 -40.3252 -40.2914 -40.2817 -40.2534 -40.2177
     7.8626   9.8449  10.0590  10.1966  11.0094  11.4388  11.5109  11.8412
    12.3691  12.8840  13.0044  16.3267

          k = 0.2222 0.3849 0.1156 (  1410 PWs)   bands (ev):

   -74.1555 -74.1524 -40.3271 -40.3265 -40.2913 -40.2832 -40.2480 -40.2195
     8.0505   9.8942   9.9720  10.1328  10.9871  11.0532  11.7462  11.9303
    12.5240  12.6777  13.0645  14.8777

          k = 0.2222 0.3849 0.2312 (  1408 PWs)   bands (ev):

   -74.1545 -74.1534 -40.3283 -40.3280 -40.2898 -40.2866 -40.2368 -40.2262
     8.5725   9.2822  10.2065  10.3245  10.6621  10.7230  11.9251  12.2988
    12.4353  12.6572  13.1451  13.6744

          k = 0.2222 0.5132 0.0000 (  1428 PWs)   bands (ev):

   -74.1534 -74.1515 -40.3376 -40.3289 -40.3051 -40.2926 -40.2429 -40.2248
     9.1049   9.7878   9.9358  10.3103  11.1617  11.4007  11.5637  11.8551
    12.2951  12.9501  13.7603  15.5945

          k = 0.2222 0.5132 0.1156 (  1415 PWs)   bands (ev):

   -74.1531 -74.1516 -40.3373 -40.3305 -40.3046 -40.2943 -40.2390 -40.2246
     9.2213   9.8598   9.9488  10.3393  10.9626  11.1889  11.6314  12.0358
    12.4166  12.7082  13.8885  15.4657

          k = 0.2222 0.5132 0.2312 (  1419 PWs)   bands (ev):

   -74.1527 -74.1521 -40.3366 -40.3340 -40.3027 -40.2986 -40.2320 -40.2266
     9.5052   9.7816  10.1673  10.4433  10.6244  10.8124  11.8616  12.2461
    12.3453  12.5091  14.2024  14.8103

          k = 0.3333 0.5774 0.0000 (  1434 PWs)   bands (ev):

   -74.1519 -74.1519 -40.3296 -40.3197 -40.3197 -40.3092 -40.2334 -40.2334
     9.6956   9.6956   9.9125  10.4527  11.3674  11.3674  11.4074  11.9500
    11.9500  12.8903  15.3097  15.4635

          k = 0.3333 0.5774 0.1156 (  1425 PWs)   bands (ev):

   -74.1519 -74.1519 -40.3276 -40.3212 -40.3212 -40.3108 -40.2313 -40.2313
     9.8115   9.8115   9.9687  10.4129  11.0839  11.0839  11.4883  12.1390
    12.1390  12.6430  15.5687  15.5687

          k = 0.3333 0.5774 0.2312 (  1428 PWs)   bands (ev):

   -74.1519 -74.1519 -40.3238 -40.3238 -40.3223 -40.3160 -40.2285 -40.2285
    10.1149  10.1204  10.1204  10.2880  10.6196  10.6196  11.7470  12.1685
    12.3266  12.3266  15.8121  15.8121

     the Fermi energy is    11.0207 ev

!    total energy              =    -658.41611794 Ry
     Harris-Foulkes estimate   =    -658.41611791 Ry
     estimated scf accuracy    <          1.2E-10 Ry

     total all-electron energy =     -5091.009189 Ry

     The total energy is the sum of the following terms:

     one-electron contribution =    -295.42449009 Ry
     hartree contribution      =     160.09004570 Ry
     xc contribution           =     -69.42557499 Ry
     ewald contribution        =    -301.37741946 Ry
     one-center paw contrib.   =    -152.27939422 Ry
     smearing contrib. (-TS)   =       0.00071511 Ry

     total magnetization       =     5.98 Bohr mag/cell
     absolute magnetization    =     6.24 Bohr mag/cell

     convergence has been achieved in  17 iterations

     Forces acting on atoms (Ry/au):


     negative rho (up, down):  0.000E+00 1.008E-03
     atom    1 type  1   force =    -0.00000000   -0.00000000    0.00000000
     atom    2 type  1   force =     0.00000000   -0.00000000    0.00000000

     Total force =     0.000000     Total SCF correction =     0.000000


     entering subroutine stress ...


     negative rho (up, down):  0.000E+00 1.008E-03
          total   stress  (Ry/bohr**3)                   (kbar)     P= -280.23
  -0.00199792  -0.00000000   0.00000000       -293.90     -0.00      0.00
  -0.00000000  -0.00199792  -0.00000000         -0.00   -293.90     -0.00
   0.00000000  -0.00000000  -0.00171908          0.00     -0.00   -252.89


     Writing output data file Fe_hcp.save

     init_run     :      4.72s CPU      4.71s WALL (       1 calls)
     electrons    :    141.17s CPU    132.75s WALL (       1 calls)
     forces       :      0.85s CPU      0.66s WALL (       1 calls)
     stress       :      2.27s CPU      2.29s WALL (       1 calls)

     Called by init_run:
     wfcinit      :      3.02s CPU      2.92s WALL (       1 calls)
     potinit      :      1.09s CPU      1.13s WALL (       1 calls)

     Called by electrons:
     c_bands      :    104.90s CPU     96.29s WALL (      17 calls)
     sum_band     :     17.44s CPU     17.06s WALL (      17 calls)
     v_of_rho     :      1.06s CPU      1.09s WALL (      18 calls)
     newd         :      1.27s CPU      1.33s WALL (      18 calls)
     mix_rho      :      0.17s CPU      0.23s WALL (      17 calls)

     Called by c_bands:
     init_us_2    :      1.49s CPU      1.51s WALL (    2664 calls)
     cegterg      :    100.69s CPU     92.04s WALL (    1224 calls)

     Called by *egterg:
     h_psi        :     80.82s CPU     77.99s WALL (    4254 calls)
     s_psi        :      3.57s CPU      2.04s WALL (    4254 calls)
     g_psi        :      0.53s CPU      0.53s WALL (    2958 calls)
     cdiaghg      :      4.20s CPU      4.23s WALL (    4182 calls)

     Called by h_psi:
     add_vuspsi   :      4.24s CPU      2.42s WALL (    4254 calls)

     General routines
     calbec       :      5.57s CPU      3.14s WALL (    5622 calls)
     fft          :      0.60s CPU      0.61s WALL (     592 calls)
     ffts         :      0.05s CPU      0.05s WALL (      70 calls)
     fftw         :     77.80s CPU     78.55s WALL (  153560 calls)
     interpolate  :      0.14s CPU      0.15s WALL (      70 calls)
     davcio       :      0.00s CPU      0.04s WALL (      72 calls)


     PAW routines
     PAW_pot      :     17.38s CPU     17.83s WALL (      18 calls)
     PAW_symme    :      0.02s CPU      0.02s WALL (      35 calls)

     PWSCF        :  2m29.51s CPU     2m21.03s WALL


   This run was terminated on:  21: 0:57  11May2015            

=------------------------------------------------------------------------------=
   JOB DONE.
=------------------------------------------------------------------------------=
