
     Program PWSCF v.5.1.2 starts on 11May2015 at 18:53:45 

     This program is part of the open-source Quantum ESPRESSO suite
     for quantum simulation of materials; please cite
         "P. Giannozzi et al., J. Phys.:Condens. Matter 21 395502 (2009);
          URL http://www.quantum-espresso.org", 
     in publications or presentations arising from this work. More details at
     http://www.quantum-espresso.org/quote

     Serial version
     Reading input from Fe_HCP_5.4_174_7_4.pw.in

     Current dimensions of program PWSCF are:
     Max number of different atomic species (ntypx) = 10
     Max number of k-points (npk) =  40000
     Max angular momentum in pseudopotentials (lmaxx) =  3
               file Fe.pbe-spn-kjpaw_psl.0.2.1.UPF: wavefunction(s)  3D renormalized

     G-vector sticks info
     --------------------
     sticks:   dense  smooth     PW     G-vecs:    dense   smooth      PW
     Sum         499     397    121                15833    11263    1955

     Generating pointlists ...
     new r_m :   0.4125 (alat units)  2.2275 (a.u.) for type    1


     bravais-lattice index     =            4
     lattice parameter (alat)  =       5.4000  a.u.
     unit-cell volume          =     237.2800 (a.u.)^3
     number of atoms/cell      =            2
     number of atomic types    =            1
     number of electrons       =        32.00
     number of Kohn-Sham states=           20
     kinetic-energy cutoff     =      50.0000  Ry
     charge density cutoff     =     250.0000  Ry
     convergence threshold     =      1.0E-08
     mixing beta               =       0.7000
     number of iterations used =            8  plain     mixing
     Exchange-correlation      =  SLA  PW   PBX  PBC ( 1  4  3  4 0 0)

     celldm(1)=   5.400000  celldm(2)=   0.000000  celldm(3)=   1.740000
     celldm(4)=   0.000000  celldm(5)=   0.000000  celldm(6)=   0.000000

     crystal axes: (cart. coord. in units of alat)
               a(1) = (   1.000000   0.000000   0.000000 )  
               a(2) = (  -0.500000   0.866025   0.000000 )  
               a(3) = (   0.000000   0.000000   1.740000 )  

     reciprocal axes: (cart. coord. in units 2 pi/alat)
               b(1) = (  1.000000  0.577350 -0.000000 )  
               b(2) = (  0.000000  1.154701  0.000000 )  
               b(3) = (  0.000000 -0.000000  0.574713 )  


     PseudoPot. # 1 for Fe read from file:
     ./Fe.pbe-spn-kjpaw_psl.0.2.1.UPF
     MD5 check sum: a0a08122d52b112de96d1da1d7dd020f
     Pseudo is Projector augmented-wave + core cor, Zval = 16.0
     Generated using "atomic" code by A. Dal Corso  v.5.0.2 svn rev. 9415
     Shape of augmentation charge: PSQ
     Using radial grid of 1191 points,  6 beta functions with: 
                l(1) =   0
                l(2) =   0
                l(3) =   1
                l(4) =   1
                l(5) =   2
                l(6) =   2
     Q(r) pseudized with 0 coefficients 


     atomic species   valence    mass     pseudopotential
        Fe            16.00    55.85000     Fe( 1.00)

     Starting magnetic structure 
     atomic species   magnetization
        Fe           0.700

     24 Sym. Ops., with inversion, found (12 have fractional translation)



   Cartesian axes

     site n.     atom                  positions (alat units)
         1           Fe  tau(   1) = (  -0.0000000   0.5773503   0.4350000  )
         2           Fe  tau(   2) = (   0.5000000   0.2886751   1.3050000  )

     number of k points=    48  Marzari-Vanderbilt smearing, width (Ry)=  0.0250
                       cart. coord. in units 2pi/alat
        k(    1) = (   0.0000000   0.0000000   0.0000000), wk =   0.0051020
        k(    2) = (   0.0000000   0.0000000   0.1436782), wk =   0.0102041
        k(    3) = (   0.0000000   0.0000000  -0.2873563), wk =   0.0051020
        k(    4) = (   0.0000000   0.1649572   0.0000000), wk =   0.0306122
        k(    5) = (   0.0000000   0.1649572   0.1436782), wk =   0.0612245
        k(    6) = (   0.0000000   0.1649572  -0.2873563), wk =   0.0306122
        k(    7) = (   0.0000000   0.3299144   0.0000000), wk =   0.0306122
        k(    8) = (   0.0000000   0.3299144   0.1436782), wk =   0.0612245
        k(    9) = (   0.0000000   0.3299144  -0.2873563), wk =   0.0306122
        k(   10) = (   0.0000000   0.4948717   0.0000000), wk =   0.0306122
        k(   11) = (   0.0000000   0.4948717   0.1436782), wk =   0.0612245
        k(   12) = (   0.0000000   0.4948717  -0.2873563), wk =   0.0306122
        k(   13) = (   0.1428571   0.2474358   0.0000000), wk =   0.0306122
        k(   14) = (   0.1428571   0.2474358   0.1436782), wk =   0.0612245
        k(   15) = (   0.1428571   0.2474358  -0.2873563), wk =   0.0306122
        k(   16) = (   0.1428571   0.4123930   0.0000000), wk =   0.0612245
        k(   17) = (   0.1428571   0.4123930   0.1436782), wk =   0.1224490
        k(   18) = (   0.1428571   0.4123930  -0.2873563), wk =   0.0612245
        k(   19) = (   0.1428571   0.5773503   0.0000000), wk =   0.0306122
        k(   20) = (   0.1428571   0.5773503   0.1436782), wk =   0.0612245
        k(   21) = (   0.1428571   0.5773503  -0.2873563), wk =   0.0306122
        k(   22) = (   0.2857143   0.4948717   0.0000000), wk =   0.0306122
        k(   23) = (   0.2857143   0.4948717   0.1436782), wk =   0.0612245
        k(   24) = (   0.2857143   0.4948717  -0.2873563), wk =   0.0306122
        k(   25) = (   0.0000000   0.0000000   0.0000000), wk =   0.0051020
        k(   26) = (   0.0000000   0.0000000   0.1436782), wk =   0.0102041
        k(   27) = (   0.0000000   0.0000000  -0.2873563), wk =   0.0051020
        k(   28) = (   0.0000000   0.1649572   0.0000000), wk =   0.0306122
        k(   29) = (   0.0000000   0.1649572   0.1436782), wk =   0.0612245
        k(   30) = (   0.0000000   0.1649572  -0.2873563), wk =   0.0306122
        k(   31) = (   0.0000000   0.3299144   0.0000000), wk =   0.0306122
        k(   32) = (   0.0000000   0.3299144   0.1436782), wk =   0.0612245
        k(   33) = (   0.0000000   0.3299144  -0.2873563), wk =   0.0306122
        k(   34) = (   0.0000000   0.4948717   0.0000000), wk =   0.0306122
        k(   35) = (   0.0000000   0.4948717   0.1436782), wk =   0.0612245
        k(   36) = (   0.0000000   0.4948717  -0.2873563), wk =   0.0306122
        k(   37) = (   0.1428571   0.2474358   0.0000000), wk =   0.0306122
        k(   38) = (   0.1428571   0.2474358   0.1436782), wk =   0.0612245
        k(   39) = (   0.1428571   0.2474358  -0.2873563), wk =   0.0306122
        k(   40) = (   0.1428571   0.4123930   0.0000000), wk =   0.0612245
        k(   41) = (   0.1428571   0.4123930   0.1436782), wk =   0.1224490
        k(   42) = (   0.1428571   0.4123930  -0.2873563), wk =   0.0612245
        k(   43) = (   0.1428571   0.5773503   0.0000000), wk =   0.0306122
        k(   44) = (   0.1428571   0.5773503   0.1436782), wk =   0.0612245
        k(   45) = (   0.1428571   0.5773503  -0.2873563), wk =   0.0306122
        k(   46) = (   0.2857143   0.4948717   0.0000000), wk =   0.0306122
        k(   47) = (   0.2857143   0.4948717   0.1436782), wk =   0.0612245
        k(   48) = (   0.2857143   0.4948717  -0.2873563), wk =   0.0306122

     Dense  grid:    15833 G-vectors     FFT dimensions: (  27,  27,  48)

     Smooth grid:    11263 G-vectors     FFT dimensions: (  25,  25,  45)

     Largest allocated arrays     est. size (Mb)     dimensions
        Kohn-Sham Wavefunctions         0.44 Mb     (    1432,   20)
        NL pseudopotentials             0.79 Mb     (    1432,   36)
        Each V/rho on FFT grid          1.07 Mb     (   34992,   2)
        Each G-vector array             0.12 Mb     (   15833)
        G-vector shells                 0.01 Mb     (     829)
     Largest temporary arrays     est. size (Mb)     dimensions
        Auxiliary wavefunctions         1.75 Mb     (    1432,   80)
        Each subspace H/S matrix        0.10 Mb     (      80,   80)
        Each <psi_i|beta_j> matrix      0.01 Mb     (      36,   20)
        Arrays for rho mixing           4.27 Mb     (   34992,    8)

     Check: negative/imaginary core charge=   -0.000319    0.000000

     Initial potential from superposition of free atoms

     starting charge   31.99912, renormalised to   32.00000
     Starting wfc are   26 randomized atomic wfcs

     total cpu time spent up to now is        4.2 secs

     Self-consistent Calculation

     iteration #  1     ecut=    50.00 Ry     beta=0.70
     Davidson diagonalization with overlap
     ethr =  1.00E-02,  avg # of iterations =  1.9

     negative rho (up, down):  0.000E+00 1.080E-03

     Magnetic moment per site:
     atom:    1    charge:   14.5960    magn:    5.9392    constr:    0.0000
     atom:    2    charge:   14.5960    magn:    5.9392    constr:    0.0000

     total cpu time spent up to now is        9.7 secs

     total energy              =    -657.96244358 Ry
     Harris-Foulkes estimate   =    -656.24282105 Ry
     estimated scf accuracy    <       2.84308383 Ry

     total magnetization       =     8.00 Bohr mag/cell
     absolute magnetization    =     8.26 Bohr mag/cell

     iteration #  2     ecut=    50.00 Ry     beta=0.70
     Davidson diagonalization with overlap
     ethr =  8.88E-03,  avg # of iterations =  1.6

     negative rho (up, down):  0.000E+00 1.032E-03

     Magnetic moment per site:
     atom:    1    charge:   14.8268    magn:    4.0084    constr:    0.0000
     atom:    2    charge:   14.8268    magn:    4.0084    constr:    0.0000

     total cpu time spent up to now is       14.5 secs

     total energy              =    -658.13374751 Ry
     Harris-Foulkes estimate   =    -658.18015595 Ry
     estimated scf accuracy    <       0.86614764 Ry

     total magnetization       =     6.44 Bohr mag/cell
     absolute magnetization    =     6.80 Bohr mag/cell

     iteration #  3     ecut=    50.00 Ry     beta=0.70
     Davidson diagonalization with overlap
     ethr =  2.71E-03,  avg # of iterations =  3.1

     negative rho (up, down):  0.000E+00 1.204E-03

     Magnetic moment per site:
     atom:    1    charge:   14.7107    magn:    2.9650    constr:    0.0000
     atom:    2    charge:   14.7107    magn:    2.9650    constr:    0.0000

     total cpu time spent up to now is       20.5 secs

     total energy              =    -658.17367947 Ry
     Harris-Foulkes estimate   =    -658.66321254 Ry
     estimated scf accuracy    <       1.39456181 Ry

     total magnetization       =     6.50 Bohr mag/cell
     absolute magnetization    =     6.82 Bohr mag/cell

     iteration #  4     ecut=    50.00 Ry     beta=0.70
     Davidson diagonalization with overlap
     ethr =  2.71E-03,  avg # of iterations =  2.7

     negative rho (up, down):  0.000E+00 1.058E-03

     Magnetic moment per site:
     atom:    1    charge:   14.7541    magn:    3.0638    constr:    0.0000
     atom:    2    charge:   14.7541    magn:    3.0638    constr:    0.0000

     total cpu time spent up to now is       25.9 secs

     total energy              =    -658.40546707 Ry
     Harris-Foulkes estimate   =    -658.40456852 Ry
     estimated scf accuracy    <       0.00436139 Ry

     total magnetization       =     5.92 Bohr mag/cell
     absolute magnetization    =     6.27 Bohr mag/cell

     iteration #  5     ecut=    50.00 Ry     beta=0.70
     Davidson diagonalization with overlap
     ethr =  1.36E-05,  avg # of iterations =  3.5

     negative rho (up, down):  0.000E+00 1.046E-03

     Magnetic moment per site:
     atom:    1    charge:   14.7528    magn:    3.0587    constr:    0.0000
     atom:    2    charge:   14.7528    magn:    3.0587    constr:    0.0000

     total cpu time spent up to now is       34.9 secs

     total energy              =    -658.41160567 Ry
     Harris-Foulkes estimate   =    -658.41088884 Ry
     estimated scf accuracy    <       0.00106566 Ry

     total magnetization       =     5.99 Bohr mag/cell
     absolute magnetization    =     6.30 Bohr mag/cell

     iteration #  6     ecut=    50.00 Ry     beta=0.70
     Davidson diagonalization with overlap
     ethr =  3.33E-06,  avg # of iterations =  1.9

     negative rho (up, down):  0.000E+00 9.997E-04

     Magnetic moment per site:
     atom:    1    charge:   14.7531    magn:    3.0519    constr:    0.0000
     atom:    2    charge:   14.7531    magn:    3.0519    constr:    0.0000

     total cpu time spent up to now is       41.7 secs

     total energy              =    -658.40957754 Ry
     Harris-Foulkes estimate   =    -658.41184687 Ry
     estimated scf accuracy    <       0.00052191 Ry

     total magnetization       =     5.99 Bohr mag/cell
     absolute magnetization    =     6.29 Bohr mag/cell

     iteration #  7     ecut=    50.00 Ry     beta=0.70
     Davidson diagonalization with overlap
     ethr =  1.63E-06,  avg # of iterations =  3.4

     negative rho (up, down):  0.000E+00 1.023E-03

     Magnetic moment per site:
     atom:    1    charge:   14.7532    magn:    3.0556    constr:    0.0000
     atom:    2    charge:   14.7532    magn:    3.0556    constr:    0.0000

     total cpu time spent up to now is       48.4 secs

     total energy              =    -658.41274171 Ry
     Harris-Foulkes estimate   =    -658.41077965 Ry
     estimated scf accuracy    <       0.00046803 Ry

     total magnetization       =     5.99 Bohr mag/cell
     absolute magnetization    =     6.25 Bohr mag/cell

     iteration #  8     ecut=    50.00 Ry     beta=0.70
     Davidson diagonalization with overlap
     ethr =  1.46E-06,  avg # of iterations =  2.3

     negative rho (up, down):  0.000E+00 1.023E-03

     Magnetic moment per site:
     atom:    1    charge:   14.7532    magn:    3.0556    constr:    0.0000
     atom:    2    charge:   14.7532    magn:    3.0556    constr:    0.0000

     total cpu time spent up to now is       54.0 secs

     total energy              =    -658.41284291 Ry
     Harris-Foulkes estimate   =    -658.41288501 Ry
     estimated scf accuracy    <       0.00014654 Ry

     total magnetization       =     5.98 Bohr mag/cell
     absolute magnetization    =     6.26 Bohr mag/cell

     iteration #  9     ecut=    50.00 Ry     beta=0.70
     Davidson diagonalization with overlap
     ethr =  4.58E-07,  avg # of iterations =  1.0

     negative rho (up, down):  0.000E+00 1.024E-03

     Magnetic moment per site:
     atom:    1    charge:   14.7531    magn:    3.0561    constr:    0.0000
     atom:    2    charge:   14.7531    magn:    3.0561    constr:    0.0000

     total cpu time spent up to now is       58.7 secs

     total energy              =    -658.41279794 Ry
     Harris-Foulkes estimate   =    -658.41284729 Ry
     estimated scf accuracy    <       0.00018035 Ry

     total magnetization       =     5.98 Bohr mag/cell
     absolute magnetization    =     6.26 Bohr mag/cell

     iteration # 10     ecut=    50.00 Ry     beta=0.70
     Davidson diagonalization with overlap
     ethr =  4.58E-07,  avg # of iterations =  1.0

     negative rho (up, down):  0.000E+00 1.025E-03

     Magnetic moment per site:
     atom:    1    charge:   14.7526    magn:    3.0560    constr:    0.0000
     atom:    2    charge:   14.7526    magn:    3.0560    constr:    0.0000

     total cpu time spent up to now is       63.5 secs

     total energy              =    -658.41278073 Ry
     Harris-Foulkes estimate   =    -658.41280093 Ry
     estimated scf accuracy    <       0.00024834 Ry

     total magnetization       =     5.98 Bohr mag/cell
     absolute magnetization    =     6.25 Bohr mag/cell

     iteration # 11     ecut=    50.00 Ry     beta=0.70
     Davidson diagonalization with overlap
     ethr =  4.58E-07,  avg # of iterations =  1.0

     negative rho (up, down):  0.000E+00 1.025E-03

     Magnetic moment per site:
     atom:    1    charge:   14.7527    magn:    3.0559    constr:    0.0000
     atom:    2    charge:   14.7527    magn:    3.0559    constr:    0.0000

     total cpu time spent up to now is       68.2 secs

     total energy              =    -658.41280975 Ry
     Harris-Foulkes estimate   =    -658.41278215 Ry
     estimated scf accuracy    <       0.00028108 Ry

     total magnetization       =     5.98 Bohr mag/cell
     absolute magnetization    =     6.25 Bohr mag/cell

     iteration # 12     ecut=    50.00 Ry     beta=0.70
     Davidson diagonalization with overlap
     ethr =  4.58E-07,  avg # of iterations =  1.0

     negative rho (up, down):  0.000E+00 1.024E-03

     Magnetic moment per site:
     atom:    1    charge:   14.7528    magn:    3.0555    constr:    0.0000
     atom:    2    charge:   14.7528    magn:    3.0555    constr:    0.0000

     total cpu time spent up to now is       72.8 secs

     total energy              =    -658.41282009 Ry
     Harris-Foulkes estimate   =    -658.41281066 Ry
     estimated scf accuracy    <       0.00027706 Ry

     total magnetization       =     5.98 Bohr mag/cell
     absolute magnetization    =     6.25 Bohr mag/cell

     iteration # 13     ecut=    50.00 Ry     beta=0.70
     Davidson diagonalization with overlap
     ethr =  4.58E-07,  avg # of iterations =  1.0

     negative rho (up, down):  0.000E+00 1.024E-03

     Magnetic moment per site:
     atom:    1    charge:   14.7528    magn:    3.0553    constr:    0.0000
     atom:    2    charge:   14.7528    magn:    3.0553    constr:    0.0000

     total cpu time spent up to now is       77.5 secs

     total energy              =    -658.41282465 Ry
     Harris-Foulkes estimate   =    -658.41282051 Ry
     estimated scf accuracy    <       0.00026432 Ry

     total magnetization       =     5.98 Bohr mag/cell
     absolute magnetization    =     6.25 Bohr mag/cell

     iteration # 14     ecut=    50.00 Ry     beta=0.70
     Davidson diagonalization with overlap
     ethr =  4.58E-07,  avg # of iterations =  1.0

     negative rho (up, down):  0.000E+00 1.024E-03

     Magnetic moment per site:
     atom:    1    charge:   14.7528    magn:    3.0551    constr:    0.0000
     atom:    2    charge:   14.7528    magn:    3.0551    constr:    0.0000

     total cpu time spent up to now is       82.2 secs

     total energy              =    -658.41283395 Ry
     Harris-Foulkes estimate   =    -658.41282484 Ry
     estimated scf accuracy    <       0.00025779 Ry

     total magnetization       =     5.98 Bohr mag/cell
     absolute magnetization    =     6.25 Bohr mag/cell

     iteration # 15     ecut=    50.00 Ry     beta=0.70
     Davidson diagonalization with overlap
     ethr =  4.58E-07,  avg # of iterations =  1.0

     negative rho (up, down):  0.000E+00 1.023E-03

     Magnetic moment per site:
     atom:    1    charge:   14.7529    magn:    3.0540    constr:    0.0000
     atom:    2    charge:   14.7529    magn:    3.0540    constr:    0.0000

     total cpu time spent up to now is       86.9 secs

     total energy              =    -658.41288102 Ry
     Harris-Foulkes estimate   =    -658.41283408 Ry
     estimated scf accuracy    <       0.00024649 Ry

     total magnetization       =     5.98 Bohr mag/cell
     absolute magnetization    =     6.25 Bohr mag/cell

     iteration # 16     ecut=    50.00 Ry     beta=0.70
     Davidson diagonalization with overlap
     ethr =  4.58E-07,  avg # of iterations =  1.0

     negative rho (up, down):  0.000E+00 1.022E-03

     Magnetic moment per site:
     atom:    1    charge:   14.7530    magn:    3.0534    constr:    0.0000
     atom:    2    charge:   14.7530    magn:    3.0534    constr:    0.0000

     total cpu time spent up to now is       91.5 secs

     total energy              =    -658.41290092 Ry
     Harris-Foulkes estimate   =    -658.41288196 Ry
     estimated scf accuracy    <       0.00019479 Ry

     total magnetization       =     5.98 Bohr mag/cell
     absolute magnetization    =     6.25 Bohr mag/cell

     iteration # 17     ecut=    50.00 Ry     beta=0.70
     Davidson diagonalization with overlap
     ethr =  4.58E-07,  avg # of iterations =  1.0

     negative rho (up, down):  0.000E+00 1.012E-03

     Magnetic moment per site:
     atom:    1    charge:   14.7541    magn:    3.0425    constr:    0.0000
     atom:    2    charge:   14.7541    magn:    3.0425    constr:    0.0000

     total cpu time spent up to now is       96.2 secs

     total energy              =    -658.41293049 Ry
     Harris-Foulkes estimate   =    -658.41290131 Ry
     estimated scf accuracy    <       0.00017228 Ry

     total magnetization       =     5.98 Bohr mag/cell
     absolute magnetization    =     6.25 Bohr mag/cell

     iteration # 18     ecut=    50.00 Ry     beta=0.70
     Davidson diagonalization with overlap
     ethr =  4.58E-07,  avg # of iterations =  2.6

     negative rho (up, down):  0.000E+00 1.011E-03

     Magnetic moment per site:
     atom:    1    charge:   14.7542    magn:    3.0422    constr:    0.0000
     atom:    2    charge:   14.7542    magn:    3.0422    constr:    0.0000

     total cpu time spent up to now is      102.4 secs

     total energy              =    -658.41304584 Ry
     Harris-Foulkes estimate   =    -658.41301719 Ry
     estimated scf accuracy    <       0.00002221 Ry

     total magnetization       =     5.98 Bohr mag/cell
     absolute magnetization    =     6.24 Bohr mag/cell

     iteration # 19     ecut=    50.00 Ry     beta=0.70
     Davidson diagonalization with overlap
     ethr =  6.94E-08,  avg # of iterations =  2.1

     negative rho (up, down):  0.000E+00 1.012E-03

     Magnetic moment per site:
     atom:    1    charge:   14.7541    magn:    3.0437    constr:    0.0000
     atom:    2    charge:   14.7541    magn:    3.0437    constr:    0.0000

     total cpu time spent up to now is      108.5 secs

     total energy              =    -658.41306854 Ry
     Harris-Foulkes estimate   =    -658.41304883 Ry
     estimated scf accuracy    <       0.00002985 Ry

     total magnetization       =     5.98 Bohr mag/cell
     absolute magnetization    =     6.24 Bohr mag/cell

     iteration # 20     ecut=    50.00 Ry     beta=0.70
     Davidson diagonalization with overlap
     ethr =  6.94E-08,  avg # of iterations =  1.4

     negative rho (up, down):  0.000E+00 1.012E-03

     Magnetic moment per site:
     atom:    1    charge:   14.7540    magn:    3.0444    constr:    0.0000
     atom:    2    charge:   14.7540    magn:    3.0444    constr:    0.0000

     total cpu time spent up to now is      113.6 secs

     total energy              =    -658.41306602 Ry
     Harris-Foulkes estimate   =    -658.41306975 Ry
     estimated scf accuracy    <       0.00001024 Ry

     total magnetization       =     5.98 Bohr mag/cell
     absolute magnetization    =     6.24 Bohr mag/cell

     iteration # 21     ecut=    50.00 Ry     beta=0.70
     Davidson diagonalization with overlap
     ethr =  3.20E-08,  avg # of iterations =  1.8

     negative rho (up, down):  0.000E+00 1.012E-03

     Magnetic moment per site:
     atom:    1    charge:   14.7539    magn:    3.0445    constr:    0.0000
     atom:    2    charge:   14.7539    magn:    3.0445    constr:    0.0000

     total cpu time spent up to now is      119.5 secs

     total energy              =    -658.41306308 Ry
     Harris-Foulkes estimate   =    -658.41306694 Ry
     estimated scf accuracy    <       0.00000380 Ry

     total magnetization       =     5.98 Bohr mag/cell
     absolute magnetization    =     6.24 Bohr mag/cell

     iteration # 22     ecut=    50.00 Ry     beta=0.70
     Davidson diagonalization with overlap
     ethr =  1.19E-08,  avg # of iterations =  2.2

     negative rho (up, down):  0.000E+00 1.012E-03

     Magnetic moment per site:
     atom:    1    charge:   14.7540    magn:    3.0441    constr:    0.0000
     atom:    2    charge:   14.7540    magn:    3.0441    constr:    0.0000

     total cpu time spent up to now is      124.9 secs

     total energy              =    -658.41306622 Ry
     Harris-Foulkes estimate   =    -658.41306369 Ry
     estimated scf accuracy    <       0.00000382 Ry

     total magnetization       =     5.98 Bohr mag/cell
     absolute magnetization    =     6.24 Bohr mag/cell

     iteration # 23     ecut=    50.00 Ry     beta=0.70
     Davidson diagonalization with overlap
     ethr =  1.19E-08,  avg # of iterations =  1.1

     negative rho (up, down):  0.000E+00 1.012E-03

     Magnetic moment per site:
     atom:    1    charge:   14.7542    magn:    3.0435    constr:    0.0000
     atom:    2    charge:   14.7542    magn:    3.0435    constr:    0.0000

     total cpu time spent up to now is      129.7 secs

     total energy              =    -658.41306758 Ry
     Harris-Foulkes estimate   =    -658.41306632 Ry
     estimated scf accuracy    <       0.00000196 Ry

     total magnetization       =     5.98 Bohr mag/cell
     absolute magnetization    =     6.24 Bohr mag/cell

     iteration # 24     ecut=    50.00 Ry     beta=0.70
     Davidson diagonalization with overlap
     ethr =  6.14E-09,  avg # of iterations =  1.4

     negative rho (up, down):  0.000E+00 1.012E-03

     Magnetic moment per site:
     atom:    1    charge:   14.7543    magn:    3.0432    constr:    0.0000
     atom:    2    charge:   14.7543    magn:    3.0432    constr:    0.0000

     total cpu time spent up to now is      134.5 secs

     total energy              =    -658.41306792 Ry
     Harris-Foulkes estimate   =    -658.41306771 Ry
     estimated scf accuracy    <       0.00000052 Ry

     total magnetization       =     5.98 Bohr mag/cell
     absolute magnetization    =     6.24 Bohr mag/cell

     iteration # 25     ecut=    50.00 Ry     beta=0.70
     Davidson diagonalization with overlap
     ethr =  1.61E-09,  avg # of iterations =  2.0

     negative rho (up, down):  0.000E+00 1.012E-03

     Magnetic moment per site:
     atom:    1    charge:   14.7543    magn:    3.0431    constr:    0.0000
     atom:    2    charge:   14.7543    magn:    3.0431    constr:    0.0000

     total cpu time spent up to now is      139.5 secs

     total energy              =    -658.41306802 Ry
     Harris-Foulkes estimate   =    -658.41306800 Ry
     estimated scf accuracy    <       0.00000007 Ry

     total magnetization       =     5.98 Bohr mag/cell
     absolute magnetization    =     6.24 Bohr mag/cell

     iteration # 26     ecut=    50.00 Ry     beta=0.70
     Davidson diagonalization with overlap
     ethr =  2.09E-10,  avg # of iterations =  3.2

     negative rho (up, down):  0.000E+00 1.012E-03

     Magnetic moment per site:
     atom:    1    charge:   14.7543    magn:    3.0430    constr:    0.0000
     atom:    2    charge:   14.7543    magn:    3.0430    constr:    0.0000

     total cpu time spent up to now is      145.6 secs

     total energy              =    -658.41306806 Ry
     Harris-Foulkes estimate   =    -658.41306805 Ry
     estimated scf accuracy    <       0.00000002 Ry

     total magnetization       =     5.98 Bohr mag/cell
     absolute magnetization    =     6.24 Bohr mag/cell

     iteration # 27     ecut=    50.00 Ry     beta=0.70
     Davidson diagonalization with overlap
     ethr =  5.25E-11,  avg # of iterations =  2.5

     negative rho (up, down):  0.000E+00 1.012E-03

     Magnetic moment per site:
     atom:    1    charge:   14.7543    magn:    3.0430    constr:    0.0000
     atom:    2    charge:   14.7543    magn:    3.0430    constr:    0.0000

     total cpu time spent up to now is      150.7 secs

     End of self-consistent calculation

 ------ SPIN UP ------------


          k = 0.0000 0.0000 0.0000 (  1377 PWs)   bands (ev):

   -77.7141 -77.7074 -43.7655 -43.7655 -43.7571 -43.7571 -43.6915 -43.6256
     4.0330   7.0629   8.4077   8.4077   8.5276   8.5276   8.6174   8.6477
     8.6477   9.0952   9.0952  10.3222

          k = 0.0000 0.0000 0.1437 (  1389 PWs)   bands (ev):

   -77.7134 -77.7084 -43.7642 -43.7642 -43.7588 -43.7588 -43.6820 -43.6368
     4.4308   6.7189   8.3630   8.3630   8.4690   8.4690   8.5663   8.7768
     8.7768   9.0722   9.0722   9.1027

          k = 0.0000 0.0000-0.2874 (  1402 PWs)   bands (ev):

   -77.7110 -77.7110 -43.7619 -43.7619 -43.7619 -43.7619 -43.6602 -43.6602
     5.5227   5.5227   8.3772   8.3772   8.3772   8.3772   8.5339   8.5339
     8.9646   8.9646   8.9646   8.9646

          k = 0.0000 0.1650 0.0000 (  1397 PWs)   bands (ev):

   -77.7127 -77.7061 -43.7804 -43.7730 -43.7698 -43.7605 -43.6869 -43.6278
     4.5632   7.3849   8.2484   8.2993   8.4277   8.5567   8.6017   8.6125
     8.7063   8.7967   9.1174  11.5464

          k = 0.0000 0.1650 0.1437 (  1410 PWs)   bands (ev):

   -77.7118 -77.7074 -43.7796 -43.7741 -43.7689 -43.7622 -43.6787 -43.6368
     4.9450   7.0914   8.1441   8.2451   8.4265   8.4891   8.5575   8.6279
     8.7767   8.9133   9.0868  10.0798

          k = 0.0000 0.1650-0.2874 (  1420 PWs)   bands (ev):

   -77.7097 -77.7097 -43.7774 -43.7774 -43.7660 -43.7660 -43.6577 -43.6577
     5.9831   5.9831   8.1713   8.1713   8.4422   8.4422   8.5223   8.5223
     8.9670   8.9670   9.2344   9.2344

          k = 0.0000 0.3299 0.0000 (  1416 PWs)   bands (ev):

   -77.7084 -77.7037 -43.8135 -43.8055 -43.7793 -43.7681 -43.6757 -43.6318
     5.9700   7.5803   7.6219   8.2239   8.3614   8.3826   8.5585   9.0701
     9.1328   9.1385   9.2807  13.7030

          k = 0.0000 0.3299 0.1437 (  1415 PWs)   bands (ev):

   -77.7077 -77.7044 -43.8124 -43.8066 -43.7782 -43.7699 -43.6691 -43.6382
     6.2343   7.3786   7.7477   8.0546   8.4657   8.5862   8.6246   8.9402
     9.1057   9.1989   9.2660  11.2887

          k = 0.0000 0.3299-0.2874 (  1408 PWs)   bands (ev):

   -77.7059 -77.7059 -43.8101 -43.8101 -43.7741 -43.7741 -43.6525 -43.6525
     6.8420   6.8420   7.9363   7.9363   8.6822   8.6822   8.7222   8.7222
     9.1663   9.1663   9.6951   9.6951

          k = 0.0000 0.4949 0.0000 (  1424 PWs)   bands (ev):

   -77.7047 -77.7019 -43.8397 -43.8310 -43.7871 -43.7740 -43.6635 -43.6380
     7.0696   7.2891   7.3305   8.1792   8.2589   8.7374   8.9892   9.1410
     9.4719   9.5190  10.5057  13.7531

          k = 0.0000 0.4949 0.1437 (  1416 PWs)   bands (ev):

   -77.7041 -77.7022 -43.8387 -43.8330 -43.7850 -43.7757 -43.6589 -43.6410
     6.9275   7.2467   7.6173   7.8362   8.3732   8.9911   9.0159   9.4690
     9.4824   9.5181  10.4197  12.8015

          k = 0.0000 0.4949-0.2874 (  1414 PWs)   bands (ev):

   -77.7031 -77.7031 -43.8365 -43.8365 -43.7802 -43.7802 -43.6493 -43.6493
     7.0103   7.0103   7.7533   7.7533   8.6662   8.6662   9.5035   9.5035
     9.5241   9.5241  11.1121  11.1121

          k = 0.1429 0.2474 0.0000 (  1418 PWs)   bands (ev):

   -77.7098 -77.7044 -43.8008 -43.7966 -43.7773 -43.7697 -43.6792 -43.6307
     5.5538   7.7952   7.8069   8.0112   8.2820   8.3485   8.5606   8.8832
     9.0334   9.1016   9.2238  13.0800

          k = 0.1429 0.2474 0.1437 (  1422 PWs)   bands (ev):

   -77.7091 -77.7052 -43.8004 -43.7975 -43.7765 -43.7711 -43.6719 -43.6376
     5.8798   7.4931   7.8976   8.0317   8.3107   8.3782   8.5283   8.8372
     9.0944   9.1014   9.2460  10.9498

          k = 0.1429 0.2474-0.2874 (  1396 PWs)   bands (ev):

   -77.7068 -77.7068 -43.7986 -43.7986 -43.7736 -43.7736 -43.6539 -43.6539
     6.7049   6.7049   8.0323   8.0323   8.3220   8.3220   8.6550   8.6550
     9.2000   9.2000   9.5667   9.5667

          k = 0.1429 0.4124 0.0000 (  1417 PWs)   bands (ev):

   -77.7054 -77.7022 -43.8261 -43.8207 -43.7903 -43.7796 -43.6669 -43.6362
     7.0067   7.4322   7.6254   8.1176   8.1504   8.3522   8.6404   9.0737
     9.2214   9.5435  10.1258  15.0225

          k = 0.1429 0.4124 0.1437 (  1410 PWs)   bands (ev):

   -77.7049 -77.7026 -43.8259 -43.8219 -43.7887 -43.7812 -43.6613 -43.6398
     7.0228   7.4115   7.7205   7.9685   8.3166   8.5290   8.6795   8.9152
     9.3141   9.6110  10.1518  12.5578

          k = 0.1429 0.4124-0.2874 (  1424 PWs)   bands (ev):

   -77.7039 -77.7039 -43.8247 -43.8247 -43.7857 -43.7857 -43.6499 -43.6499
     7.1790   7.1790   7.9171   7.9171   8.4879   8.4879   8.7641   8.7641
     9.6157   9.6157  10.7299  10.7299

          k = 0.1429 0.5774 0.0000 (  1430 PWs)   bands (ev):

   -77.7036 -77.7016 -43.8388 -43.8303 -43.7964 -43.7844 -43.6587 -43.6418
     7.3104   7.4120   7.4579   8.1436   8.1605   8.5898   8.8550   9.0617
     9.4915   9.6593  11.9719  12.8605

          k = 0.1429 0.5774 0.1437 (  1417 PWs)   bands (ev):

   -77.7031 -77.7016 -43.8381 -43.8320 -43.7947 -43.7862 -43.6549 -43.6430
     7.1281   7.4396   7.7600   7.8247   8.1785   8.8073   8.9652   9.0023
     9.5167   9.7269  12.1307  12.8553

          k = 0.1429 0.5774-0.2874 (  1424 PWs)   bands (ev):

   -77.7025 -77.7025 -43.8357 -43.8357 -43.7908 -43.7908 -43.6483 -43.6483
     7.2007   7.2007   7.8449   7.8449   8.4461   8.4461   9.1152   9.1152
     9.6706   9.6706  12.6188  12.6188

          k = 0.2857 0.4949 0.0000 (  1432 PWs)   bands (ev):

   -77.7030 -77.7016 -43.8283 -43.8225 -43.8081 -43.8001 -43.6557 -43.6439
     7.4054   7.7501   7.9278   7.9509   8.0273   8.1631   8.6862   8.9776
     9.4270   9.6726  12.0682  15.2215

          k = 0.2857 0.4949 0.1437 (  1430 PWs)   bands (ev):

   -77.7027 -77.7018 -43.8271 -43.8236 -43.8078 -43.8017 -43.6527 -43.6446
     7.4482   7.6457   7.8543   7.9596   8.1397   8.2885   8.6776   8.8300
     9.5150   9.7137  12.3223  14.7064

          k = 0.2857 0.4949-0.2874 (  1416 PWs)   bands (ev):

   -77.7020 -77.7020 -43.8254 -43.8254 -43.8051 -43.8051 -43.6471 -43.6471
     7.5172   7.5172   7.9438   7.9438   8.2478   8.2478   8.6867   8.6867
     9.6894   9.6894  13.1991  13.1991

 ------ SPIN DOWN ----------


          k = 0.0000 0.0000 0.0000 (  1377 PWs)   bands (ev):

   -74.2492 -74.2414 -40.3553 -40.3529 -40.3529 -40.3434 -40.3434 -40.2778
     4.3506   8.1653  10.4191  10.4718  11.1597  11.1597  11.3272  11.3272
    12.3479  12.3479  12.9408  12.9408

          k = 0.0000 0.0000 0.1437 (  1389 PWs)   bands (ev):

   -74.2484 -74.2425 -40.3514 -40.3514 -40.3451 -40.3451 -40.3440 -40.2905
     4.7516   7.3993  10.1307  10.3279  11.1562  11.1562  11.2783  11.2783
    12.4651  12.4651  12.8815  12.8815

          k = 0.0000 0.0000-0.2874 (  1402 PWs)   bands (ev):

   -74.2456 -74.2456 -40.3486 -40.3486 -40.3486 -40.3486 -40.3178 -40.3178
     5.8834   5.8834  10.1390  10.1390  11.1924  11.1924  11.1924  11.1924
    12.7008  12.7008  12.7008  12.7008

          k = 0.0000 0.1650 0.0000 (  1397 PWs)   bands (ev):

   -74.2474 -74.2399 -40.3702 -40.3617 -40.3579 -40.3498 -40.3472 -40.2800
     4.8836   8.5678  10.2668  10.4788  11.0106  11.1876  11.3952  11.5445
    12.1366  12.2111  12.9776  13.6687

          k = 0.0000 0.1650 0.1437 (  1410 PWs)   bands (ev):

   -74.2464 -74.2413 -40.3702 -40.3634 -40.3567 -40.3490 -40.3391 -40.2902
     5.2757   7.8523  10.0554  10.4138  10.9578  11.1454  11.3835  11.4931
    12.3031  12.3581  12.8897  13.0830

          k = 0.0000 0.1650-0.2874 (  1420 PWs)   bands (ev):

   -74.2440 -74.2440 -40.3675 -40.3675 -40.3532 -40.3532 -40.3142 -40.3142
     6.3826   6.3826  10.1832  10.1832  11.0045  11.0045  11.4104  11.4104
    12.6498  12.6498  12.6651  12.6651

          k = 0.0000 0.3299 0.0000 (  1416 PWs)   bands (ev):

   -74.2424 -74.2370 -40.4092 -40.3999 -40.3689 -40.3558 -40.3364 -40.2847
     6.3745   9.3395  10.0354  10.3584  10.7141  11.4260  11.7177  11.9556
    11.9807  12.0701  13.0120  15.1956

          k = 0.0000 0.3299 0.1437 (  1415 PWs)   bands (ev):

   -74.2416 -74.2378 -40.4088 -40.4019 -40.3674 -40.3579 -40.3277 -40.2914
     6.7280   8.8858   9.9402  10.4793  10.5951  11.1304  11.8908  12.0101
    12.0572  12.2148  12.8724  13.5009

          k = 0.0000 0.3299-0.2874 (  1408 PWs)   bands (ev):

   -74.2396 -74.2396 -40.4065 -40.4065 -40.3627 -40.3627 -40.3080 -40.3080
     7.6970   7.6970  10.2191  10.2191  10.7719  10.7719  11.9307  11.9307
    12.5485  12.5485  12.6190  12.6190

          k = 0.0000 0.4949 0.0000 (  1424 PWs)   bands (ev):

   -74.2380 -74.2348 -40.4401 -40.4300 -40.3778 -40.3627 -40.3218 -40.2918
     8.2707   9.3967   9.9890  10.1244  10.7810  11.3628  11.7768  12.3855
    12.5056  12.5599  13.0168  14.8009

          k = 0.0000 0.4949 0.1437 (  1416 PWs)   bands (ev):

   -74.2375 -74.2352 -40.4397 -40.4328 -40.3754 -40.3647 -40.3159 -40.2949
     8.4561   9.3038   9.9038  10.2503  10.7849  11.5553  11.9227  12.2775
    12.5140  12.5377  12.8252  13.9074

          k = 0.0000 0.4949-0.2874 (  1414 PWs)   bands (ev):

   -74.2363 -74.2363 -40.4375 -40.4375 -40.3700 -40.3700 -40.3041 -40.3041
     8.8949   8.8949  10.0987  10.0987  11.2253  11.2253  12.2892  12.2892
    12.5819  12.5819  12.7392  12.7392

          k = 0.1429 0.2474 0.0000 (  1418 PWs)   bands (ev):

   -74.2439 -74.2379 -40.3940 -40.3897 -40.3664 -40.3576 -40.3405 -40.2833
     5.9017   9.2030  10.0934  10.3608  10.9435  11.0367  11.7747  11.8292
    11.9810  12.0884  12.9561  14.8470

          k = 0.1429 0.2474 0.1437 (  1422 PWs)   bands (ev):

   -74.2431 -74.2387 -40.3946 -40.3910 -40.3656 -40.3593 -40.3309 -40.2908
     6.2717   8.6347   9.9791  10.4353  10.7599  10.9412  11.7549  11.8892
    12.1226  12.2538  12.8373  13.4179

          k = 0.1429 0.2474-0.2874 (  1396 PWs)   bands (ev):

   -74.2406 -74.2406 -40.3930 -40.3930 -40.3624 -40.3624 -40.3094 -40.3094
     7.3084   7.3084  10.2564  10.2564  10.7168  10.7168  11.8090  11.8090
    12.5497  12.5497  12.6591  12.6591

          k = 0.1429 0.4124 0.0000 (  1417 PWs)   bands (ev):

   -74.2389 -74.2352 -40.4243 -40.4178 -40.3817 -40.3694 -40.3258 -40.2897
     7.6780   9.6550  10.0611  10.1041  10.8238  11.4393  11.5388  11.7725
    12.3048  12.6870  12.9177  15.8908

          k = 0.1429 0.4124 0.1437 (  1410 PWs)   bands (ev):

   -74.2383 -74.2357 -40.4246 -40.4198 -40.3801 -40.3714 -40.3186 -40.2934
     7.9641   9.5085   9.9112  10.2832  10.6711  11.0852  11.7718  11.9759
    12.4414  12.5167  12.8905  14.1899

          k = 0.1429 0.4124-0.2874 (  1424 PWs)   bands (ev):

   -74.2372 -74.2372 -40.4235 -40.4235 -40.3766 -40.3766 -40.3046 -40.3046
     8.7086   8.7086  10.2220  10.2220  10.6663  10.6663  12.0685  12.0685
    12.5213  12.5213  13.0290  13.0290

          k = 0.1429 0.5774 0.0000 (  1430 PWs)   bands (ev):

   -74.2367 -74.2344 -40.4391 -40.4291 -40.3889 -40.3750 -40.3161 -40.2961
     9.0106   9.4851   9.9416  10.1094  10.9314  11.3017  11.5852  12.2503
    12.2550  12.9003  13.5608  14.4088

          k = 0.1429 0.5774 0.1437 (  1417 PWs)   bands (ev):

   -74.2362 -74.2346 -40.4388 -40.4317 -40.3872 -40.3772 -40.3111 -40.2971
     9.1095   9.4875   9.9524  10.2632  10.7617  11.2665  11.7918  12.2668
    12.3365  12.5932  13.6190  14.2808

          k = 0.1429 0.5774-0.2874 (  1424 PWs)   bands (ev):

   -74.2355 -74.2355 -40.4365 -40.4365 -40.3827 -40.3827 -40.3026 -40.3026
     9.3259   9.3259  10.1893  10.1893  10.9470  10.9470  12.1311  12.1311
    12.3697  12.3697  13.8865  13.8865

          k = 0.2857 0.4949 0.0000 (  1432 PWs)   bands (ev):

   -74.2359 -74.2343 -40.4265 -40.4199 -40.4027 -40.3932 -40.3126 -40.2986
     9.1800   9.7904   9.8425  10.2780  11.1939  11.2737  11.3969  11.6721
    12.1592  12.7840  13.8902  16.2100

          k = 0.2857 0.4949 0.1437 (  1430 PWs)   bands (ev):

   -74.2356 -74.2346 -40.4256 -40.4218 -40.4027 -40.3954 -40.3083 -40.2987
     9.3660   9.8894   9.9456  10.2311  10.8720  10.9306  11.4707  12.0027
    12.3344  12.4437  14.1021  15.7766

          k = 0.2857 0.4949-0.2874 (  1416 PWs)   bands (ev):

   -74.2350 -74.2350 -40.4242 -40.4242 -40.3999 -40.3999 -40.3012 -40.3012
     9.7638   9.7638  10.2583  10.2583  10.4882  10.4882  11.8743  11.8743
    12.3443  12.3443  14.7017  14.7017

     the Fermi energy is    10.9494 ev

!    total energy              =    -658.41306807 Ry
     Harris-Foulkes estimate   =    -658.41306806 Ry
     estimated scf accuracy    <          7.4E-09 Ry

     total all-electron energy =     -5091.006139 Ry

     The total energy is the sum of the following terms:

     one-electron contribution =    -296.45307060 Ry
     hartree contribution      =     160.50527186 Ry
     xc contribution           =     -69.41907015 Ry
     ewald contribution        =    -300.76700870 Ry
     one-center paw contrib.   =    -152.27913093 Ry
     smearing contrib. (-TS)   =      -0.00005953 Ry

     total magnetization       =     5.98 Bohr mag/cell
     absolute magnetization    =     6.24 Bohr mag/cell

     convergence has been achieved in  27 iterations

     Forces acting on atoms (Ry/au):


     negative rho (up, down):  0.000E+00 1.012E-03
     atom    1 type  1   force =     0.00000000   -0.00000000    0.00000000
     atom    2 type  1   force =    -0.00000000    0.00000000    0.00000000

     Total force =     0.000000     Total SCF correction =     0.000000


     entering subroutine stress ...


     negative rho (up, down):  0.000E+00 1.012E-03
          total   stress  (Ry/bohr**3)                   (kbar)     P= -286.38
  -0.00200385  -0.00000000   0.00000000       -294.78     -0.00      0.00
  -0.00000000  -0.00200385   0.00000000         -0.00   -294.78      0.00
   0.00000000   0.00000000  -0.00183252          0.00      0.00   -269.57


     Writing output data file Fe_hcp.save

     init_run     :      3.73s CPU      3.75s WALL (       1 calls)
     electrons    :    150.37s CPU    146.60s WALL (       1 calls)
     forces       :      0.67s CPU      0.60s WALL (       1 calls)
     stress       :      1.89s CPU      1.95s WALL (       1 calls)

     Called by init_run:
     wfcinit      :      2.04s CPU      1.97s WALL (       1 calls)
     potinit      :      1.09s CPU      1.13s WALL (       1 calls)

     Called by electrons:
     c_bands      :    100.24s CPU     95.08s WALL (      27 calls)
     sum_band     :     19.87s CPU     19.72s WALL (      27 calls)
     v_of_rho     :      1.69s CPU      1.79s WALL (      28 calls)
     newd         :      2.06s CPU      2.18s WALL (      28 calls)
     mix_rho      :      0.31s CPU      0.40s WALL (      27 calls)

     Called by c_bands:
     init_us_2    :      1.52s CPU      1.57s WALL (    2736 calls)
     cegterg      :     95.77s CPU     90.47s WALL (    1296 calls)

     Called by *egterg:
     h_psi        :     77.82s CPU     77.03s WALL (    3730 calls)
     s_psi        :      3.41s CPU      2.04s WALL (    3730 calls)
     g_psi        :      0.46s CPU      0.48s WALL (    2386 calls)
     cdiaghg      :      3.16s CPU      3.25s WALL (    3682 calls)

     Called by h_psi:
     add_vuspsi   :      3.91s CPU      2.34s WALL (    3730 calls)

     General routines
     calbec       :      5.49s CPU      3.15s WALL (    5122 calls)
     fft          :      0.95s CPU      0.98s WALL (     902 calls)
     ffts         :      0.08s CPU      0.08s WALL (     110 calls)
     fftw         :     76.40s CPU     78.90s WALL (  146680 calls)
     interpolate  :      0.22s CPU      0.24s WALL (     110 calls)
     davcio       :      0.00s CPU      0.02s WALL (      48 calls)


     PAW routines
     PAW_pot      :     27.18s CPU     28.41s WALL (      28 calls)
     PAW_symme    :      0.04s CPU      0.04s WALL (      55 calls)

     PWSCF        :  2m37.12s CPU     2m33.63s WALL


   This run was terminated on:  18:56:18  11May2015            

=------------------------------------------------------------------------------=
   JOB DONE.
=------------------------------------------------------------------------------=
