
     Program PWSCF v.5.1.2 starts on 11May2015 at 18: 4: 9 

     This program is part of the open-source Quantum ESPRESSO suite
     for quantum simulation of materials; please cite
         "P. Giannozzi et al., J. Phys.:Condens. Matter 21 395502 (2009);
          URL http://www.quantum-espresso.org", 
     in publications or presentations arising from this work. More details at
     http://www.quantum-espresso.org/quote

     Serial version
     Reading input from Fe_HCP_5.39_173_6_3.pw.in

     Current dimensions of program PWSCF are:
     Max number of different atomic species (ntypx) = 10
     Max number of k-points (npk) =  40000
     Max angular momentum in pseudopotentials (lmaxx) =  3
               file Fe.pbe-spn-kjpaw_psl.0.2.1.UPF: wavefunction(s)  3D renormalized

     G-vector sticks info
     --------------------
     sticks:   dense  smooth     PW     G-vecs:    dense   smooth      PW
     Sum         499     397    121                15641    11189    1967

     Generating pointlists ...
     new r_m :   0.4125 (alat units)  2.2234 (a.u.) for type    1


     bravais-lattice index     =            4
     lattice parameter (alat)  =       5.3900  a.u.
     unit-cell volume          =     234.6081 (a.u.)^3
     number of atoms/cell      =            2
     number of atomic types    =            1
     number of electrons       =        32.00
     number of Kohn-Sham states=           20
     kinetic-energy cutoff     =      50.0000  Ry
     charge density cutoff     =     250.0000  Ry
     convergence threshold     =      1.0E-08
     mixing beta               =       0.7000
     number of iterations used =            8  plain     mixing
     Exchange-correlation      =  SLA  PW   PBX  PBC ( 1  4  3  4 0 0)

     celldm(1)=   5.390000  celldm(2)=   0.000000  celldm(3)=   1.730000
     celldm(4)=   0.000000  celldm(5)=   0.000000  celldm(6)=   0.000000

     crystal axes: (cart. coord. in units of alat)
               a(1) = (   1.000000   0.000000   0.000000 )  
               a(2) = (  -0.500000   0.866025   0.000000 )  
               a(3) = (   0.000000   0.000000   1.730000 )  

     reciprocal axes: (cart. coord. in units 2 pi/alat)
               b(1) = (  1.000000  0.577350 -0.000000 )  
               b(2) = (  0.000000  1.154701  0.000000 )  
               b(3) = (  0.000000 -0.000000  0.578035 )  


     PseudoPot. # 1 for Fe read from file:
     ./Fe.pbe-spn-kjpaw_psl.0.2.1.UPF
     MD5 check sum: a0a08122d52b112de96d1da1d7dd020f
     Pseudo is Projector augmented-wave + core cor, Zval = 16.0
     Generated using "atomic" code by A. Dal Corso  v.5.0.2 svn rev. 9415
     Shape of augmentation charge: PSQ
     Using radial grid of 1191 points,  6 beta functions with: 
                l(1) =   0
                l(2) =   0
                l(3) =   1
                l(4) =   1
                l(5) =   2
                l(6) =   2
     Q(r) pseudized with 0 coefficients 


     atomic species   valence    mass     pseudopotential
        Fe            16.00    55.85000     Fe( 1.00)

     Starting magnetic structure 
     atomic species   magnetization
        Fe           0.700

     24 Sym. Ops., with inversion, found (12 have fractional translation)



   Cartesian axes

     site n.     atom                  positions (alat units)
         1           Fe  tau(   1) = (  -0.0000000   0.5773503   0.4325000  )
         2           Fe  tau(   2) = (   0.5000000   0.2886751   1.2975000  )

     number of k points=    28  Marzari-Vanderbilt smearing, width (Ry)=  0.0250
                       cart. coord. in units 2pi/alat
        k(    1) = (   0.0000000   0.0000000   0.0000000), wk =   0.0092593
        k(    2) = (   0.0000000   0.0000000   0.1926782), wk =   0.0185185
        k(    3) = (   0.0000000   0.1924501   0.0000000), wk =   0.0555556
        k(    4) = (   0.0000000   0.1924501   0.1926782), wk =   0.1111111
        k(    5) = (   0.0000000   0.3849002   0.0000000), wk =   0.0555556
        k(    6) = (   0.0000000   0.3849002   0.1926782), wk =   0.1111111
        k(    7) = (   0.0000000  -0.5773503   0.0000000), wk =   0.0277778
        k(    8) = (   0.0000000  -0.5773503   0.1926782), wk =   0.0555556
        k(    9) = (   0.1666667   0.2886751   0.0000000), wk =   0.0555556
        k(   10) = (   0.1666667   0.2886751   0.1926782), wk =   0.1111111
        k(   11) = (   0.1666667   0.4811252   0.0000000), wk =   0.1111111
        k(   12) = (   0.1666667   0.4811252   0.1926782), wk =   0.2222222
        k(   13) = (   0.3333333   0.5773503   0.0000000), wk =   0.0185185
        k(   14) = (   0.3333333   0.5773503   0.1926782), wk =   0.0370370
        k(   15) = (   0.0000000   0.0000000   0.0000000), wk =   0.0092593
        k(   16) = (   0.0000000   0.0000000   0.1926782), wk =   0.0185185
        k(   17) = (   0.0000000   0.1924501   0.0000000), wk =   0.0555556
        k(   18) = (   0.0000000   0.1924501   0.1926782), wk =   0.1111111
        k(   19) = (   0.0000000   0.3849002   0.0000000), wk =   0.0555556
        k(   20) = (   0.0000000   0.3849002   0.1926782), wk =   0.1111111
        k(   21) = (   0.0000000  -0.5773503   0.0000000), wk =   0.0277778
        k(   22) = (   0.0000000  -0.5773503   0.1926782), wk =   0.0555556
        k(   23) = (   0.1666667   0.2886751   0.0000000), wk =   0.0555556
        k(   24) = (   0.1666667   0.2886751   0.1926782), wk =   0.1111111
        k(   25) = (   0.1666667   0.4811252   0.0000000), wk =   0.1111111
        k(   26) = (   0.1666667   0.4811252   0.1926782), wk =   0.2222222
        k(   27) = (   0.3333333   0.5773503   0.0000000), wk =   0.0185185
        k(   28) = (   0.3333333   0.5773503   0.1926782), wk =   0.0370370

     Dense  grid:    15641 G-vectors     FFT dimensions: (  27,  27,  48)

     Smooth grid:    11189 G-vectors     FFT dimensions: (  25,  25,  45)

     Largest allocated arrays     est. size (Mb)     dimensions
        Kohn-Sham Wavefunctions         0.44 Mb     (    1428,   20)
        NL pseudopotentials             0.78 Mb     (    1428,   36)
        Each V/rho on FFT grid          1.07 Mb     (   34992,   2)
        Each G-vector array             0.12 Mb     (   15641)
        G-vector shells                 0.01 Mb     (     820)
     Largest temporary arrays     est. size (Mb)     dimensions
        Auxiliary wavefunctions         1.74 Mb     (    1428,   80)
        Each subspace H/S matrix        0.10 Mb     (      80,   80)
        Each <psi_i|beta_j> matrix      0.01 Mb     (      36,   20)
        Arrays for rho mixing           4.27 Mb     (   34992,    8)

     Check: negative/imaginary core charge=   -0.000320    0.000000

     Initial potential from superposition of free atoms

     starting charge   31.99912, renormalised to   32.00000
     Starting wfc are   26 randomized atomic wfcs

     total cpu time spent up to now is        3.6 secs

     Self-consistent Calculation

     iteration #  1     ecut=    50.00 Ry     beta=0.70
     Davidson diagonalization with overlap
     ethr =  1.00E-02,  avg # of iterations =  2.0

     negative rho (up, down):  0.000E+00 1.064E-03

     Magnetic moment per site:
     atom:    1    charge:   14.5969    magn:    5.9359    constr:    0.0000
     atom:    2    charge:   14.5969    magn:    5.9359    constr:    0.0000

     total cpu time spent up to now is        7.6 secs

     total energy              =    -657.96261323 Ry
     Harris-Foulkes estimate   =    -656.23924613 Ry
     estimated scf accuracy    <       2.84504747 Ry

     total magnetization       =     8.00 Bohr mag/cell
     absolute magnetization    =     8.24 Bohr mag/cell

     iteration #  2     ecut=    50.00 Ry     beta=0.70
     Davidson diagonalization with overlap
     ethr =  8.89E-03,  avg # of iterations =  1.7

     negative rho (up, down):  0.000E+00 1.049E-03

     Magnetic moment per site:
     atom:    1    charge:   14.8216    magn:    4.0132    constr:    0.0000
     atom:    2    charge:   14.8216    magn:    4.0132    constr:    0.0000

     total cpu time spent up to now is       11.4 secs

     total energy              =    -658.15169423 Ry
     Harris-Foulkes estimate   =    -658.18529357 Ry
     estimated scf accuracy    <       0.82285725 Ry

     total magnetization       =     6.59 Bohr mag/cell
     absolute magnetization    =     6.87 Bohr mag/cell

     iteration #  3     ecut=    50.00 Ry     beta=0.70
     Davidson diagonalization with overlap
     ethr =  2.57E-03,  avg # of iterations =  3.1

     negative rho (up, down):  0.000E+00 1.239E-03

     Magnetic moment per site:
     atom:    1    charge:   14.7074    magn:    3.0954    constr:    0.0000
     atom:    2    charge:   14.7074    magn:    3.0954    constr:    0.0000

     total cpu time spent up to now is       15.9 secs

     total energy              =    -658.18458560 Ry
     Harris-Foulkes estimate   =    -658.65080797 Ry
     estimated scf accuracy    <       1.27871622 Ry

     total magnetization       =     6.84 Bohr mag/cell
     absolute magnetization    =     7.07 Bohr mag/cell

     iteration #  4     ecut=    50.00 Ry     beta=0.70
     Davidson diagonalization with overlap
     ethr =  2.57E-03,  avg # of iterations =  2.8

     negative rho (up, down):  0.000E+00 9.613E-04

     Magnetic moment per site:
     atom:    1    charge:   14.7739    magn:    2.9015    constr:    0.0000
     atom:    2    charge:   14.7739    magn:    2.9015    constr:    0.0000

     total cpu time spent up to now is       19.8 secs

     total energy              =    -658.40453589 Ry
     Harris-Foulkes estimate   =    -658.40477234 Ry
     estimated scf accuracy    <       0.00767792 Ry

     total magnetization       =     5.78 Bohr mag/cell
     absolute magnetization    =     6.20 Bohr mag/cell

     iteration #  5     ecut=    50.00 Ry     beta=0.70
     Davidson diagonalization with overlap
     ethr =  2.40E-05,  avg # of iterations =  3.3

     negative rho (up, down):  0.000E+00 9.839E-04

     Magnetic moment per site:
     atom:    1    charge:   14.7559    magn:    2.9319    constr:    0.0000
     atom:    2    charge:   14.7559    magn:    2.9319    constr:    0.0000

     total cpu time spent up to now is       25.2 secs

     total energy              =    -658.41292173 Ry
     Harris-Foulkes estimate   =    -658.41171609 Ry
     estimated scf accuracy    <       0.00091330 Ry

     total magnetization       =     5.62 Bohr mag/cell
     absolute magnetization    =     6.06 Bohr mag/cell

     iteration #  6     ecut=    50.00 Ry     beta=0.70
     Davidson diagonalization with overlap
     ethr =  2.85E-06,  avg # of iterations =  2.2

     negative rho (up, down):  0.000E+00 9.942E-04

     Magnetic moment per site:
     atom:    1    charge:   14.7556    magn:    2.9393    constr:    0.0000
     atom:    2    charge:   14.7556    magn:    2.9393    constr:    0.0000

     total cpu time spent up to now is       30.5 secs

     total energy              =    -658.41265186 Ry
     Harris-Foulkes estimate   =    -658.41324533 Ry
     estimated scf accuracy    <       0.00079999 Ry

     total magnetization       =     5.63 Bohr mag/cell
     absolute magnetization    =     6.05 Bohr mag/cell

     iteration #  7     ecut=    50.00 Ry     beta=0.70
     Davidson diagonalization with overlap
     ethr =  2.50E-06,  avg # of iterations =  1.3

     negative rho (up, down):  0.000E+00 9.186E-04

     Magnetic moment per site:
     atom:    1    charge:   14.7578    magn:    2.8964    constr:    0.0000
     atom:    2    charge:   14.7578    magn:    2.8964    constr:    0.0000

     total cpu time spent up to now is       34.2 secs

     total energy              =    -658.41407725 Ry
     Harris-Foulkes estimate   =    -658.41268474 Ry
     estimated scf accuracy    <       0.00155405 Ry

     total magnetization       =     5.63 Bohr mag/cell
     absolute magnetization    =     6.06 Bohr mag/cell

     iteration #  8     ecut=    50.00 Ry     beta=0.70
     Davidson diagonalization with overlap
     ethr =  2.50E-06,  avg # of iterations =  2.6

     negative rho (up, down):  0.000E+00 9.175E-04

     Magnetic moment per site:
     atom:    1    charge:   14.7580    magn:    2.8960    constr:    0.0000
     atom:    2    charge:   14.7580    magn:    2.8960    constr:    0.0000

     total cpu time spent up to now is       38.1 secs

     total energy              =    -658.41463888 Ry
     Harris-Foulkes estimate   =    -658.41458588 Ry
     estimated scf accuracy    <       0.00026681 Ry

     total magnetization       =     5.58 Bohr mag/cell
     absolute magnetization    =     6.00 Bohr mag/cell

     iteration #  9     ecut=    50.00 Ry     beta=0.70
     Davidson diagonalization with overlap
     ethr =  8.34E-07,  avg # of iterations =  1.5

     negative rho (up, down):  0.000E+00 9.183E-04

     Magnetic moment per site:
     atom:    1    charge:   14.7578    magn:    2.8987    constr:    0.0000
     atom:    2    charge:   14.7578    magn:    2.8987    constr:    0.0000

     total cpu time spent up to now is       41.5 secs

     total energy              =    -658.41446488 Ry
     Harris-Foulkes estimate   =    -658.41466489 Ry
     estimated scf accuracy    <       0.00038662 Ry

     total magnetization       =     5.58 Bohr mag/cell
     absolute magnetization    =     5.99 Bohr mag/cell

     iteration # 10     ecut=    50.00 Ry     beta=0.70
     Davidson diagonalization with overlap
     ethr =  8.34E-07,  avg # of iterations =  1.0

     negative rho (up, down):  0.000E+00 9.202E-04

     Magnetic moment per site:
     atom:    1    charge:   14.7579    magn:    2.9019    constr:    0.0000
     atom:    2    charge:   14.7579    magn:    2.9019    constr:    0.0000

     total cpu time spent up to now is       44.9 secs

     total energy              =    -658.41417543 Ry
     Harris-Foulkes estimate   =    -658.41446983 Ry
     estimated scf accuracy    <       0.00053046 Ry

     total magnetization       =     5.58 Bohr mag/cell
     absolute magnetization    =     5.99 Bohr mag/cell

     iteration # 11     ecut=    50.00 Ry     beta=0.70
     Davidson diagonalization with overlap
     ethr =  8.34E-07,  avg # of iterations =  1.0

     negative rho (up, down):  0.000E+00 9.039E-04

     Magnetic moment per site:
     atom:    1    charge:   14.7616    magn:    2.8651    constr:    0.0000
     atom:    2    charge:   14.7616    magn:    2.8651    constr:    0.0000

     total cpu time spent up to now is       48.2 secs

     total energy              =    -658.41485812 Ry
     Harris-Foulkes estimate   =    -658.41417774 Ry
     estimated scf accuracy    <       0.00068908 Ry

     total magnetization       =     5.58 Bohr mag/cell
     absolute magnetization    =     5.99 Bohr mag/cell

     iteration # 12     ecut=    50.00 Ry     beta=0.70
     Davidson diagonalization with overlap
     ethr =  8.34E-07,  avg # of iterations =  2.8

     negative rho (up, down):  0.000E+00 8.884E-04

     Magnetic moment per site:
     atom:    1    charge:   14.7627    magn:    2.8540    constr:    0.0000
     atom:    2    charge:   14.7627    magn:    2.8540    constr:    0.0000

     total cpu time spent up to now is       52.1 secs

     total energy              =    -658.41500439 Ry
     Harris-Foulkes estimate   =    -658.41507723 Ry
     estimated scf accuracy    <       0.00001439 Ry

     total magnetization       =     5.55 Bohr mag/cell
     absolute magnetization    =     5.95 Bohr mag/cell

     iteration # 13     ecut=    50.00 Ry     beta=0.70
     Davidson diagonalization with overlap
     ethr =  4.50E-08,  avg # of iterations =  4.3

     negative rho (up, down):  0.000E+00 8.968E-04

     Magnetic moment per site:
     atom:    1    charge:   14.7619    magn:    2.8665    constr:    0.0000
     atom:    2    charge:   14.7619    magn:    2.8665    constr:    0.0000

     total cpu time spent up to now is       57.3 secs

     total energy              =    -658.41514992 Ry
     Harris-Foulkes estimate   =    -658.41506644 Ry
     estimated scf accuracy    <       0.00002034 Ry

     total magnetization       =     5.54 Bohr mag/cell
     absolute magnetization    =     5.93 Bohr mag/cell

     iteration # 14     ecut=    50.00 Ry     beta=0.70
     Davidson diagonalization with overlap
     ethr =  4.50E-08,  avg # of iterations =  3.1

     negative rho (up, down):  0.000E+00 8.968E-04

     Magnetic moment per site:
     atom:    1    charge:   14.7621    magn:    2.8637    constr:    0.0000
     atom:    2    charge:   14.7621    magn:    2.8637    constr:    0.0000

     total cpu time spent up to now is       61.7 secs

     total energy              =    -658.41517476 Ry
     Harris-Foulkes estimate   =    -658.41516553 Ry
     estimated scf accuracy    <       0.00004050 Ry

     total magnetization       =     5.55 Bohr mag/cell
     absolute magnetization    =     5.94 Bohr mag/cell

     iteration # 15     ecut=    50.00 Ry     beta=0.70
     Davidson diagonalization with overlap
     ethr =  4.50E-08,  avg # of iterations =  1.8

     negative rho (up, down):  0.000E+00 8.964E-04

     Magnetic moment per site:
     atom:    1    charge:   14.7619    magn:    2.8660    constr:    0.0000
     atom:    2    charge:   14.7619    magn:    2.8660    constr:    0.0000

     total cpu time spent up to now is       65.2 secs

     total energy              =    -658.41515441 Ry
     Harris-Foulkes estimate   =    -658.41517620 Ry
     estimated scf accuracy    <       0.00001679 Ry

     total magnetization       =     5.54 Bohr mag/cell
     absolute magnetization    =     5.94 Bohr mag/cell

     iteration # 16     ecut=    50.00 Ry     beta=0.70
     Davidson diagonalization with overlap
     ethr =  4.50E-08,  avg # of iterations =  1.2

     negative rho (up, down):  0.000E+00 8.937E-04

     Magnetic moment per site:
     atom:    1    charge:   14.7623    magn:    2.8616    constr:    0.0000
     atom:    2    charge:   14.7623    magn:    2.8616    constr:    0.0000

     total cpu time spent up to now is       68.6 secs

     total energy              =    -658.41518750 Ry
     Harris-Foulkes estimate   =    -658.41515480 Ry
     estimated scf accuracy    <       0.00003348 Ry

     total magnetization       =     5.54 Bohr mag/cell
     absolute magnetization    =     5.94 Bohr mag/cell

     iteration # 17     ecut=    50.00 Ry     beta=0.70
     Davidson diagonalization with overlap
     ethr =  4.50E-08,  avg # of iterations =  1.9

     negative rho (up, down):  0.000E+00 8.909E-04

     Magnetic moment per site:
     atom:    1    charge:   14.7627    magn:    2.8574    constr:    0.0000
     atom:    2    charge:   14.7627    magn:    2.8574    constr:    0.0000

     total cpu time spent up to now is       72.2 secs

     total energy              =    -658.41519297 Ry
     Harris-Foulkes estimate   =    -658.41519096 Ry
     estimated scf accuracy    <       0.00000809 Ry

     total magnetization       =     5.54 Bohr mag/cell
     absolute magnetization    =     5.93 Bohr mag/cell

     iteration # 18     ecut=    50.00 Ry     beta=0.70
     Davidson diagonalization with overlap
     ethr =  2.53E-08,  avg # of iterations =  2.8

     negative rho (up, down):  0.000E+00 8.907E-04

     Magnetic moment per site:
     atom:    1    charge:   14.7626    magn:    2.8574    constr:    0.0000
     atom:    2    charge:   14.7626    magn:    2.8574    constr:    0.0000

     total cpu time spent up to now is       75.8 secs

     total energy              =    -658.41519910 Ry
     Harris-Foulkes estimate   =    -658.41519684 Ry
     estimated scf accuracy    <       0.00000002 Ry

     total magnetization       =     5.54 Bohr mag/cell
     absolute magnetization    =     5.93 Bohr mag/cell

     iteration # 19     ecut=    50.00 Ry     beta=0.70
     Davidson diagonalization with overlap
     ethr =  6.48E-11,  avg # of iterations =  4.2

     negative rho (up, down):  0.000E+00 8.899E-04

     Magnetic moment per site:
     atom:    1    charge:   14.7627    magn:    2.8564    constr:    0.0000
     atom:    2    charge:   14.7627    magn:    2.8564    constr:    0.0000

     total cpu time spent up to now is       80.8 secs

     total energy              =    -658.41519912 Ry
     Harris-Foulkes estimate   =    -658.41519927 Ry
     estimated scf accuracy    <       0.00000012 Ry

     total magnetization       =     5.54 Bohr mag/cell
     absolute magnetization    =     5.93 Bohr mag/cell

     iteration # 20     ecut=    50.00 Ry     beta=0.70
     Davidson diagonalization with overlap
     ethr =  6.48E-11,  avg # of iterations =  4.5

     negative rho (up, down):  0.000E+00 8.879E-04

     Magnetic moment per site:
     atom:    1    charge:   14.7629    magn:    2.8543    constr:    0.0000
     atom:    2    charge:   14.7629    magn:    2.8543    constr:    0.0000

     total cpu time spent up to now is       85.4 secs

     total energy              =    -658.41519412 Ry
     Harris-Foulkes estimate   =    -658.41519937 Ry
     estimated scf accuracy    <       0.00000003 Ry

     total magnetization       =     5.54 Bohr mag/cell
     absolute magnetization    =     5.92 Bohr mag/cell

     iteration # 21     ecut=    50.00 Ry     beta=0.70
     Davidson diagonalization with overlap
     ethr =  6.48E-11,  avg # of iterations =  4.8

     negative rho (up, down):  0.000E+00 8.899E-04

     Magnetic moment per site:
     atom:    1    charge:   14.7627    magn:    2.8566    constr:    0.0000
     atom:    2    charge:   14.7627    magn:    2.8566    constr:    0.0000

     total cpu time spent up to now is       90.5 secs

     total energy              =    -658.41519904 Ry
     Harris-Foulkes estimate   =    -658.41519517 Ry
     estimated scf accuracy    <       0.00000191 Ry

     total magnetization       =     5.53 Bohr mag/cell
     absolute magnetization    =     5.92 Bohr mag/cell

     iteration # 22     ecut=    50.00 Ry     beta=0.70
     Davidson diagonalization with overlap
     ethr =  6.48E-11,  avg # of iterations =  4.5

     negative rho (up, down):  0.000E+00 8.896E-04

     Magnetic moment per site:
     atom:    1    charge:   14.7627    magn:    2.8564    constr:    0.0000
     atom:    2    charge:   14.7627    magn:    2.8564    constr:    0.0000

     total cpu time spent up to now is       95.4 secs

     total energy              =    -658.41519989 Ry
     Harris-Foulkes estimate   =    -658.41519978 Ry
     estimated scf accuracy    <       0.00000004 Ry

     total magnetization       =     5.54 Bohr mag/cell
     absolute magnetization    =     5.92 Bohr mag/cell

     iteration # 23     ecut=    50.00 Ry     beta=0.70
     Davidson diagonalization with overlap
     ethr =  6.48E-11,  avg # of iterations =  2.4

     negative rho (up, down):  0.000E+00 8.897E-04

     Magnetic moment per site:
     atom:    1    charge:   14.7627    magn:    2.8564    constr:    0.0000
     atom:    2    charge:   14.7627    magn:    2.8564    constr:    0.0000

     total cpu time spent up to now is       99.4 secs

     End of self-consistent calculation

 ------ SPIN UP ------------


          k = 0.0000 0.0000 0.0000 (  1377 PWs)   bands (ev):

   -77.4014 -77.3941 -43.4674 -43.4674 -43.4583 -43.4583 -43.3676 -43.2971
     4.2090   7.3740   8.7119   8.7119   8.8387   8.8387   8.8622   8.8622
     9.0023   9.3294   9.3294  10.5517

          k = 0.0000 0.0000 0.1927 (  1377 PWs)   bands (ev):

   -77.3997 -77.3958 -43.4650 -43.4650 -43.4606 -43.4606 -43.3495 -43.3158
     4.9215   6.6405   8.6365   8.6365   8.7282   8.7282   8.9108   9.0883
     9.0883   9.0982   9.2939   9.2939

          k = 0.0000 0.1925 0.0000 (  1383 PWs)   bands (ev):

   -77.3991 -77.3922 -43.4870 -43.4792 -43.4729 -43.4624 -43.3608 -43.2993
     4.9276   7.7873   8.3819   8.5221   8.7152   8.7408   8.7893   8.9760
     9.0807   9.2386   9.3588  12.1164

          k = 0.0000 0.1925 0.1927 (  1395 PWs)   bands (ev):

   -77.3975 -77.3941 -43.4856 -43.4814 -43.4708 -43.4654 -43.3452 -43.3147
     5.5950   7.1493   8.3239   8.4781   8.7000   8.7615   8.8076   8.9230
     9.1424   9.3245   9.3596  10.1163

          k = 0.0000 0.3849 0.0000 (  1392 PWs)   bands (ev):

   -77.3935 -77.3892 -43.5269 -43.5172 -43.4841 -43.4715 -43.3456 -43.3052
     6.6818   7.6738   7.7856   8.5082   8.5377   8.5910   9.0947   9.3802
     9.5528   9.6059   9.9426  14.8094

          k = 0.0000 0.3849 0.1927 (  1414 PWs)   bands (ev):

   -77.3928 -77.3906 -43.5258 -43.5214 -43.4818 -43.4750 -43.3349 -43.3148
     6.9253   7.4393   8.0195   8.1994   8.7152   9.1176   9.1779   9.3557
     9.5858   9.6287   9.8106  11.3712

          k = 0.0000-0.5774 0.0000 (  1408 PWs)   bands (ev):

   -77.3906 -77.3881 -43.5467 -43.5378 -43.4901 -43.4758 -43.3348 -43.3117
     7.4316   7.4461   7.5467   8.3758   8.4466   9.2784   9.3356   9.3814
     9.8552   9.9102  11.6928  12.8499

          k = 0.0000-0.5774 0.1927 (  1398 PWs)   bands (ev):

   -77.3899 -77.3886 -43.5456 -43.5408 -43.4863 -43.4790 -43.3278 -43.3162
     7.1465   7.4136   7.9572   7.9943   8.6574   9.1211   9.5680   9.8719
     9.8982  10.0872  11.6232  12.5360

          k = 0.1667 0.2887 0.0000 (  1398 PWs)   bands (ev):

   -77.3951 -77.3900 -43.5111 -43.5079 -43.4829 -43.4748 -43.3498 -43.3031
     6.2276   7.8670   8.1879   8.2225   8.4149   8.6963   8.7259   9.3279
     9.3292   9.5650   9.8116  14.0427

          k = 0.1667 0.2887 0.1927 (  1393 PWs)   bands (ev):

   -77.3938 -77.3912 -43.5105 -43.5085 -43.4814 -43.4771 -43.3375 -43.3144
     6.7027   7.5548   8.2603   8.2749   8.5737   8.6727   8.7343   9.0480
     9.5767   9.6658   9.7850  11.0147

          k = 0.1667 0.4811 0.0000 (  1411 PWs)   bands (ev):

   -77.3906 -77.3883 -43.5363 -43.5288 -43.4989 -43.4867 -43.3351 -43.3114
     7.5622   7.6406   7.8650   8.2968   8.4644   8.5749   9.0843   9.2884
     9.7266  10.0221  11.2763  14.8993

          k = 0.1667 0.4811 0.1927 (  1406 PWs)   bands (ev):

   -77.3900 -77.3887 -43.5352 -43.5313 -43.4964 -43.4902 -43.3276 -43.3159
     7.3951   7.6406   8.0583   8.2220   8.4367   8.8670   9.1596   9.1671
     9.8677  10.1015  11.5192  13.1525

          k = 0.3333 0.5774 0.0000 (  1428 PWs)   bands (ev):

   -77.3887 -77.3887 -43.5283 -43.5193 -43.5193 -43.5101 -43.3224 -43.3224
     7.6124   8.1838   8.1838   8.2426   8.2760   8.2760   9.0032   9.1995
     9.9512   9.9512  14.2193  14.4200

          k = 0.3333 0.5774 0.1927 (  1410 PWs)   bands (ev):

   -77.3883 -77.3883 -43.5233 -43.5202 -43.5202 -43.5144 -43.3202 -43.3202
     7.8173   7.9627   7.9627   8.1689   8.5097   8.5097   8.9516   8.9992
    10.0358  10.0358  14.7526  14.7526

 ------ SPIN DOWN ----------


          k = 0.0000 0.0000 0.0000 (  1377 PWs)   bands (ev):

   -74.1220 -74.1134 -40.2340 -40.2172 -40.2172 -40.2070 -40.2070 -40.1520
     4.4223   8.2260  10.4904  10.6311  11.2541  11.2541  11.4284  11.4284
    12.5314  12.5314  13.1498  13.1498

          k = 0.0000 0.0000 0.1927 (  1377 PWs)   bands (ev):

   -74.1200 -74.1155 -40.2145 -40.2145 -40.2131 -40.2096 -40.2096 -40.1733
     5.1377   6.9970  10.1744  10.3371  11.2568  11.2568  11.3475  11.3475
    12.7309  12.7309  13.0373  13.0373

          k = 0.0000 0.1925 0.0000 (  1383 PWs)   bands (ev):

   -74.1192 -74.1113 -40.2404 -40.2312 -40.2261 -40.2238 -40.2118 -40.1543
     5.1479   8.7556  10.3736  10.5487  11.0615  11.2659  11.5731  11.7210
    12.2557  12.3489  13.1980  14.1164

          k = 0.0000 0.1925 0.1927 (  1395 PWs)   bands (ev):

   -74.1173 -74.1135 -40.2405 -40.2348 -40.2212 -40.2151 -40.2060 -40.1713
     5.8411   7.6318  10.1368  10.4457  10.9822  11.1591  11.5596  11.6381
    12.5633  12.6098  13.0215  13.1605

          k = 0.0000 0.3849 0.0000 (  1392 PWs)   bands (ev):

   -74.1127 -74.1078 -40.2873 -40.2765 -40.2368 -40.2222 -40.2081 -40.1611
     7.1048   9.5132  10.1493  10.3646  10.7710  11.7568  11.7637  12.0515
    12.2970  12.3658  13.2321  15.5870

          k = 0.0000 0.3849 0.1927 (  1414 PWs)   bands (ev):

   -74.1117 -74.1093 -40.2874 -40.2821 -40.2339 -40.2262 -40.1941 -40.1710
     7.6647   8.9684  10.0517  10.5033  10.6841  11.2015  12.1476  12.2917
    12.3732  12.4880  12.9533  13.4345

          k = 0.0000-0.5774 0.0000 (  1408 PWs)   bands (ev):

   -74.1093 -74.1064 -40.3107 -40.3001 -40.2436 -40.2272 -40.1954 -40.1686
     8.8402   9.3448  10.1284  10.1326  10.8917  11.4872  11.9200  12.6900
    12.7558  12.9862  13.2345  14.0991

          k = 0.0000-0.5774 0.1927 (  1398 PWs)   bands (ev):

   -74.1085 -74.1070 -40.3106 -40.3050 -40.2394 -40.2310 -40.1860 -40.1727
     8.9888   9.2815  10.0588  10.2886  11.0247  11.9731  12.1961  12.5166
    12.6870  12.7448  12.8691  13.5711

          k = 0.1667 0.2887 0.0000 (  1398 PWs)   bands (ev):

   -74.1145 -74.1087 -40.2684 -40.2653 -40.2353 -40.2259 -40.2132 -40.1587
     6.5067   9.4997  10.2140  10.3235  10.9848  11.1999  11.8214  12.1139
    12.1780  12.3046  13.1540  15.5062

          k = 0.1667 0.2887 0.1927 (  1393 PWs)   bands (ev):

   -74.1130 -74.1101 -40.2697 -40.2671 -40.2339 -40.2290 -40.1967 -40.1705
     7.1379   8.7009  10.1095  10.5009  10.6941  10.9131  11.9777  12.1719
    12.4144  12.5263  12.9314  13.4334

          k = 0.1667 0.4811 0.0000 (  1411 PWs)   bands (ev):

   -74.1092 -74.1066 -40.2984 -40.2895 -40.2540 -40.2400 -40.1957 -40.1683
     8.6126   9.7158  10.0626  10.2602  11.0144  11.5140  11.7855  11.8799
    12.4469  13.0976  13.2612  15.7712

          k = 0.1667 0.4811 0.1927 (  1406 PWs)   bands (ev):

   -74.1086 -74.1071 -40.2982 -40.2937 -40.2516 -40.2445 -40.1853 -40.1721
     8.9737   9.6409  10.0606  10.4513  10.7210  11.0978  11.9485  12.3084
    12.5185  12.6688  13.4734  14.4539

          k = 0.3333 0.5774 0.0000 (  1428 PWs)   bands (ev):

   -74.1068 -74.1068 -40.2885 -40.2783 -40.2783 -40.2674 -40.1809 -40.1809
     9.7119   9.7119   9.9213  10.5060  11.4282  11.4326  11.4326  11.9656
    11.9656  12.9740  15.3577  15.5158

          k = 0.3333 0.5774 0.1927 (  1410 PWs)   bands (ev):

   -74.1066 -74.1066 -40.2828 -40.2813 -40.2813 -40.2724 -40.1768 -40.1768
    10.0246  10.0246  10.0750  10.3723  10.8088  10.8088  11.6817  12.3190
    12.3190  12.3976  15.7887  15.7887

     the Fermi energy is    11.1236 ev

!    total energy              =    -658.41519990 Ry
     Harris-Foulkes estimate   =    -658.41519990 Ry
     estimated scf accuracy    <          1.0E-10 Ry

     total all-electron energy =     -5091.008271 Ry

     The total energy is the sum of the following terms:

     one-electron contribution =    -294.63689906 Ry
     hartree contribution      =     159.84758633 Ry
     xc contribution           =     -69.41049883 Ry
     ewald contribution        =    -301.93656124 Ry
     one-center paw contrib.   =    -152.27827929 Ry
     smearing contrib. (-TS)   =      -0.00054780 Ry

     total magnetization       =     5.54 Bohr mag/cell
     absolute magnetization    =     5.92 Bohr mag/cell

     convergence has been achieved in  23 iterations

     Forces acting on atoms (Ry/au):


     negative rho (up, down):  0.000E+00 8.897E-04
     atom    1 type  1   force =     0.00000000   -0.00000000    0.00000000
     atom    2 type  1   force =     0.00000000    0.00000000    0.00000000

     Total force =     0.000000     Total SCF correction =     0.000000


     entering subroutine stress ...


     negative rho (up, down):  0.000E+00 8.897E-04
          total   stress  (Ry/bohr**3)                   (kbar)     P= -294.14
  -0.00217739   0.00000000   0.00000000       -320.31      0.00      0.00
   0.00000000  -0.00217739   0.00000000          0.00   -320.31      0.00
   0.00000000   0.00000000  -0.00164376          0.00      0.00   -241.81


     Writing output data file Fe_hcp.save

     init_run     :      3.04s CPU      3.09s WALL (       1 calls)
     electrons    :     96.85s CPU     95.83s WALL (       1 calls)
     forces       :      0.50s CPU      0.47s WALL (       1 calls)
     stress       :      1.54s CPU      1.56s WALL (       1 calls)

     Called by init_run:
     wfcinit      :      1.20s CPU      1.17s WALL (       1 calls)
     potinit      :      1.21s CPU      1.27s WALL (       1 calls)

     Called by electrons:
     c_bands      :     59.54s CPU     56.59s WALL (      23 calls)
     sum_band     :     11.26s CPU     11.32s WALL (      23 calls)
     v_of_rho     :      1.45s CPU      1.53s WALL (      24 calls)
     newd         :      1.80s CPU      1.97s WALL (      24 calls)
     mix_rho      :      0.26s CPU      0.34s WALL (      23 calls)

     Called by c_bands:
     init_us_2    :      0.77s CPU      0.82s WALL (    1372 calls)
     cegterg      :     57.28s CPU     54.21s WALL (     644 calls)

     Called by *egterg:
     h_psi        :     44.95s CPU     44.94s WALL (    2377 calls)
     s_psi        :      2.03s CPU      1.21s WALL (    2377 calls)
     g_psi        :      0.28s CPU      0.30s WALL (    1705 calls)
     cdiaghg      :      2.58s CPU      2.67s WALL (    2349 calls)

     Called by h_psi:
     add_vuspsi   :      2.26s CPU      1.35s WALL (    2377 calls)

     General routines
     calbec       :      3.10s CPU      1.81s WALL (    3077 calls)
     fft          :      0.83s CPU      0.85s WALL (     778 calls)
     ffts         :      0.07s CPU      0.07s WALL (      94 calls)
     fftw         :     43.22s CPU     45.11s WALL (   81232 calls)
     interpolate  :      0.19s CPU      0.20s WALL (      94 calls)
     davcio       :      0.00s CPU      0.01s WALL (      28 calls)


     PAW routines
     PAW_pot      :     23.67s CPU     25.24s WALL (      24 calls)
     PAW_symme    :      0.03s CPU      0.03s WALL (      47 calls)

     PWSCF        :  1m42.43s CPU     1m41.54s WALL


   This run was terminated on:  18: 5:51  11May2015            

=------------------------------------------------------------------------------=
   JOB DONE.
=------------------------------------------------------------------------------=
