
     Program PWSCF v.5.1.2 starts on 11May2015 at 22:34:22 

     This program is part of the open-source Quantum ESPRESSO suite
     for quantum simulation of materials; please cite
         "P. Giannozzi et al., J. Phys.:Condens. Matter 21 395502 (2009);
          URL http://www.quantum-espresso.org", 
     in publications or presentations arising from this work. More details at
     http://www.quantum-espresso.org/quote

     Serial version
     Reading input from Fe_HCP_5.43_173_10_5.pw.in

     Current dimensions of program PWSCF are:
     Max number of different atomic species (ntypx) = 10
     Max number of k-points (npk) =  40000
     Max angular momentum in pseudopotentials (lmaxx) =  3
               file Fe.pbe-spn-kjpaw_psl.0.2.1.UPF: wavefunction(s)  3D renormalized

     G-vector sticks info
     --------------------
     sticks:   dense  smooth     PW     G-vecs:    dense   smooth      PW
     Sum         511     421    121                16061    11455    1967

     Generating pointlists ...
     new r_m :   0.4125 (alat units)  2.2399 (a.u.) for type    1


     bravais-lattice index     =            4
     lattice parameter (alat)  =       5.4300  a.u.
     unit-cell volume          =     239.8702 (a.u.)^3
     number of atoms/cell      =            2
     number of atomic types    =            1
     number of electrons       =        32.00
     number of Kohn-Sham states=           20
     kinetic-energy cutoff     =      50.0000  Ry
     charge density cutoff     =     250.0000  Ry
     convergence threshold     =      1.0E-08
     mixing beta               =       0.7000
     number of iterations used =            8  plain     mixing
     Exchange-correlation      =  SLA  PW   PBX  PBC ( 1  4  3  4 0 0)

     celldm(1)=   5.430000  celldm(2)=   0.000000  celldm(3)=   1.730000
     celldm(4)=   0.000000  celldm(5)=   0.000000  celldm(6)=   0.000000

     crystal axes: (cart. coord. in units of alat)
               a(1) = (   1.000000   0.000000   0.000000 )  
               a(2) = (  -0.500000   0.866025   0.000000 )  
               a(3) = (   0.000000   0.000000   1.730000 )  

     reciprocal axes: (cart. coord. in units 2 pi/alat)
               b(1) = (  1.000000  0.577350 -0.000000 )  
               b(2) = (  0.000000  1.154701  0.000000 )  
               b(3) = (  0.000000 -0.000000  0.578035 )  


     PseudoPot. # 1 for Fe read from file:
     ./Fe.pbe-spn-kjpaw_psl.0.2.1.UPF
     MD5 check sum: a0a08122d52b112de96d1da1d7dd020f
     Pseudo is Projector augmented-wave + core cor, Zval = 16.0
     Generated using "atomic" code by A. Dal Corso  v.5.0.2 svn rev. 9415
     Shape of augmentation charge: PSQ
     Using radial grid of 1191 points,  6 beta functions with: 
                l(1) =   0
                l(2) =   0
                l(3) =   1
                l(4) =   1
                l(5) =   2
                l(6) =   2
     Q(r) pseudized with 0 coefficients 


     atomic species   valence    mass     pseudopotential
        Fe            16.00    55.85000     Fe( 1.00)

     Starting magnetic structure 
     atomic species   magnetization
        Fe           0.700

     24 Sym. Ops., with inversion, found (12 have fractional translation)



   Cartesian axes

     site n.     atom                  positions (alat units)
         1           Fe  tau(   1) = (  -0.0000000   0.5773503   0.4325000  )
         2           Fe  tau(   2) = (   0.5000000   0.2886751   1.2975000  )

     number of k points=    84  Marzari-Vanderbilt smearing, width (Ry)=  0.0250
                       cart. coord. in units 2pi/alat
        k(    1) = (   0.0000000   0.0000000   0.0000000), wk =   0.0020000
        k(    2) = (   0.0000000   0.0000000   0.1156069), wk =   0.0040000
        k(    3) = (   0.0000000   0.0000000   0.2312139), wk =   0.0040000
        k(    4) = (   0.0000000   0.1154701   0.0000000), wk =   0.0120000
        k(    5) = (   0.0000000   0.1154701   0.1156069), wk =   0.0240000
        k(    6) = (   0.0000000   0.1154701   0.2312139), wk =   0.0240000
        k(    7) = (   0.0000000   0.2309401   0.0000000), wk =   0.0120000
        k(    8) = (   0.0000000   0.2309401   0.1156069), wk =   0.0240000
        k(    9) = (   0.0000000   0.2309401   0.2312139), wk =   0.0240000
        k(   10) = (   0.0000000   0.3464102   0.0000000), wk =   0.0120000
        k(   11) = (   0.0000000   0.3464102   0.1156069), wk =   0.0240000
        k(   12) = (   0.0000000   0.3464102   0.2312139), wk =   0.0240000
        k(   13) = (   0.0000000   0.4618802   0.0000000), wk =   0.0120000
        k(   14) = (   0.0000000   0.4618802   0.1156069), wk =   0.0240000
        k(   15) = (   0.0000000   0.4618802   0.2312139), wk =   0.0240000
        k(   16) = (   0.0000000  -0.5773503   0.0000000), wk =   0.0060000
        k(   17) = (   0.0000000  -0.5773503   0.1156069), wk =   0.0120000
        k(   18) = (   0.0000000  -0.5773503   0.2312139), wk =   0.0120000
        k(   19) = (   0.1000000   0.1732051   0.0000000), wk =   0.0120000
        k(   20) = (   0.1000000   0.1732051   0.1156069), wk =   0.0240000
        k(   21) = (   0.1000000   0.1732051   0.2312139), wk =   0.0240000
        k(   22) = (   0.1000000   0.2886751   0.0000000), wk =   0.0240000
        k(   23) = (   0.1000000   0.2886751   0.1156069), wk =   0.0480000
        k(   24) = (   0.1000000   0.2886751   0.2312139), wk =   0.0480000
        k(   25) = (   0.1000000   0.4041452   0.0000000), wk =   0.0240000
        k(   26) = (   0.1000000   0.4041452   0.1156069), wk =   0.0480000
        k(   27) = (   0.1000000   0.4041452   0.2312139), wk =   0.0480000
        k(   28) = (   0.1000000   0.5196152   0.0000000), wk =   0.0240000
        k(   29) = (   0.1000000   0.5196152   0.1156069), wk =   0.0480000
        k(   30) = (   0.1000000   0.5196152   0.2312139), wk =   0.0480000
        k(   31) = (   0.2000000   0.3464102   0.0000000), wk =   0.0120000
        k(   32) = (   0.2000000   0.3464102   0.1156069), wk =   0.0240000
        k(   33) = (   0.2000000   0.3464102   0.2312139), wk =   0.0240000
        k(   34) = (   0.2000000   0.4618802   0.0000000), wk =   0.0240000
        k(   35) = (   0.2000000   0.4618802   0.1156069), wk =   0.0480000
        k(   36) = (   0.2000000   0.4618802   0.2312139), wk =   0.0480000
        k(   37) = (   0.2000000   0.5773503   0.0000000), wk =   0.0120000
        k(   38) = (   0.2000000   0.5773503   0.1156069), wk =   0.0240000
        k(   39) = (   0.2000000   0.5773503   0.2312139), wk =   0.0240000
        k(   40) = (   0.3000000   0.5196152   0.0000000), wk =   0.0120000
        k(   41) = (   0.3000000   0.5196152   0.1156069), wk =   0.0240000
        k(   42) = (   0.3000000   0.5196152   0.2312139), wk =   0.0240000
        k(   43) = (   0.0000000   0.0000000   0.0000000), wk =   0.0020000
        k(   44) = (   0.0000000   0.0000000   0.1156069), wk =   0.0040000
        k(   45) = (   0.0000000   0.0000000   0.2312139), wk =   0.0040000
        k(   46) = (   0.0000000   0.1154701   0.0000000), wk =   0.0120000
        k(   47) = (   0.0000000   0.1154701   0.1156069), wk =   0.0240000
        k(   48) = (   0.0000000   0.1154701   0.2312139), wk =   0.0240000
        k(   49) = (   0.0000000   0.2309401   0.0000000), wk =   0.0120000
        k(   50) = (   0.0000000   0.2309401   0.1156069), wk =   0.0240000
        k(   51) = (   0.0000000   0.2309401   0.2312139), wk =   0.0240000
        k(   52) = (   0.0000000   0.3464102   0.0000000), wk =   0.0120000
        k(   53) = (   0.0000000   0.3464102   0.1156069), wk =   0.0240000
        k(   54) = (   0.0000000   0.3464102   0.2312139), wk =   0.0240000
        k(   55) = (   0.0000000   0.4618802   0.0000000), wk =   0.0120000
        k(   56) = (   0.0000000   0.4618802   0.1156069), wk =   0.0240000
        k(   57) = (   0.0000000   0.4618802   0.2312139), wk =   0.0240000
        k(   58) = (   0.0000000  -0.5773503   0.0000000), wk =   0.0060000
        k(   59) = (   0.0000000  -0.5773503   0.1156069), wk =   0.0120000
        k(   60) = (   0.0000000  -0.5773503   0.2312139), wk =   0.0120000
        k(   61) = (   0.1000000   0.1732051   0.0000000), wk =   0.0120000
        k(   62) = (   0.1000000   0.1732051   0.1156069), wk =   0.0240000
        k(   63) = (   0.1000000   0.1732051   0.2312139), wk =   0.0240000
        k(   64) = (   0.1000000   0.2886751   0.0000000), wk =   0.0240000
        k(   65) = (   0.1000000   0.2886751   0.1156069), wk =   0.0480000
        k(   66) = (   0.1000000   0.2886751   0.2312139), wk =   0.0480000
        k(   67) = (   0.1000000   0.4041452   0.0000000), wk =   0.0240000
        k(   68) = (   0.1000000   0.4041452   0.1156069), wk =   0.0480000
        k(   69) = (   0.1000000   0.4041452   0.2312139), wk =   0.0480000
        k(   70) = (   0.1000000   0.5196152   0.0000000), wk =   0.0240000
        k(   71) = (   0.1000000   0.5196152   0.1156069), wk =   0.0480000
        k(   72) = (   0.1000000   0.5196152   0.2312139), wk =   0.0480000
        k(   73) = (   0.2000000   0.3464102   0.0000000), wk =   0.0120000
        k(   74) = (   0.2000000   0.3464102   0.1156069), wk =   0.0240000
        k(   75) = (   0.2000000   0.3464102   0.2312139), wk =   0.0240000
        k(   76) = (   0.2000000   0.4618802   0.0000000), wk =   0.0240000
        k(   77) = (   0.2000000   0.4618802   0.1156069), wk =   0.0480000
        k(   78) = (   0.2000000   0.4618802   0.2312139), wk =   0.0480000
        k(   79) = (   0.2000000   0.5773503   0.0000000), wk =   0.0120000
        k(   80) = (   0.2000000   0.5773503   0.1156069), wk =   0.0240000
        k(   81) = (   0.2000000   0.5773503   0.2312139), wk =   0.0240000
        k(   82) = (   0.3000000   0.5196152   0.0000000), wk =   0.0120000
        k(   83) = (   0.3000000   0.5196152   0.1156069), wk =   0.0240000
        k(   84) = (   0.3000000   0.5196152   0.2312139), wk =   0.0240000

     Dense  grid:    16061 G-vectors     FFT dimensions: (  27,  27,  48)

     Smooth grid:    11455 G-vectors     FFT dimensions: (  25,  25,  45)

     Largest allocated arrays     est. size (Mb)     dimensions
        Kohn-Sham Wavefunctions         0.44 Mb     (    1448,   20)
        NL pseudopotentials             0.80 Mb     (    1448,   36)
        Each V/rho on FFT grid          1.07 Mb     (   34992,   2)
        Each G-vector array             0.12 Mb     (   16061)
        G-vector shells                 0.01 Mb     (     838)
     Largest temporary arrays     est. size (Mb)     dimensions
        Auxiliary wavefunctions         1.77 Mb     (    1448,   80)
        Each subspace H/S matrix        0.10 Mb     (      80,   80)
        Each <psi_i|beta_j> matrix      0.01 Mb     (      36,   20)
        Arrays for rho mixing           4.27 Mb     (   34992,    8)

     Check: negative/imaginary core charge=   -0.000320    0.000000

     Initial potential from superposition of free atoms

     starting charge   31.99912, renormalised to   32.00000
     Starting wfc are   26 randomized atomic wfcs

     total cpu time spent up to now is        6.6 secs

     Self-consistent Calculation

     iteration #  1     ecut=    50.00 Ry     beta=0.70
     Davidson diagonalization with overlap
     ethr =  1.00E-02,  avg # of iterations =  2.0

     negative rho (up, down):  0.000E+00 1.093E-03

     Magnetic moment per site:
     atom:    1    charge:   14.6102    magn:    5.9467    constr:    0.0000
     atom:    2    charge:   14.6102    magn:    5.9467    constr:    0.0000

     total cpu time spent up to now is       15.6 secs

     total energy              =    -657.96307982 Ry
     Harris-Foulkes estimate   =    -656.24967821 Ry
     estimated scf accuracy    <       2.83803056 Ry

     total magnetization       =     8.00 Bohr mag/cell
     absolute magnetization    =     8.27 Bohr mag/cell

     iteration #  2     ecut=    50.00 Ry     beta=0.70
     Davidson diagonalization with overlap
     ethr =  8.87E-03,  avg # of iterations =  1.6

     negative rho (up, down):  0.000E+00 1.064E-03

     Magnetic moment per site:
     atom:    1    charge:   14.8369    magn:    4.0359    constr:    0.0000
     atom:    2    charge:   14.8369    magn:    4.0359    constr:    0.0000

     total cpu time spent up to now is       24.5 secs

     total energy              =    -658.13417398 Ry
     Harris-Foulkes estimate   =    -658.18027102 Ry
     estimated scf accuracy    <       0.84524745 Ry

     total magnetization       =     6.57 Bohr mag/cell
     absolute magnetization    =     6.86 Bohr mag/cell

     iteration #  3     ecut=    50.00 Ry     beta=0.70
     Davidson diagonalization with overlap
     ethr =  2.64E-03,  avg # of iterations =  3.1

     negative rho (up, down):  0.000E+00 1.251E-03

     Magnetic moment per site:
     atom:    1    charge:   14.7229    magn:    3.0565    constr:    0.0000
     atom:    2    charge:   14.7229    magn:    3.0565    constr:    0.0000

     total cpu time spent up to now is       35.3 secs

     total energy              =    -658.17188630 Ry
     Harris-Foulkes estimate   =    -658.64948963 Ry
     estimated scf accuracy    <       1.33735467 Ry

     total magnetization       =     6.71 Bohr mag/cell
     absolute magnetization    =     6.99 Bohr mag/cell

     iteration #  4     ecut=    50.00 Ry     beta=0.70
     Davidson diagonalization with overlap
     ethr =  2.64E-03,  avg # of iterations =  2.7

     negative rho (up, down):  0.000E+00 1.021E-03

     Magnetic moment per site:
     atom:    1    charge:   14.7822    magn:    2.9944    constr:    0.0000
     atom:    2    charge:   14.7822    magn:    2.9944    constr:    0.0000

     total cpu time spent up to now is       46.4 secs

     total energy              =    -658.39969969 Ry
     Harris-Foulkes estimate   =    -658.39998163 Ry
     estimated scf accuracy    <       0.00678024 Ry

     total magnetization       =     5.86 Bohr mag/cell
     absolute magnetization    =     6.25 Bohr mag/cell

     iteration #  5     ecut=    50.00 Ry     beta=0.70
     Davidson diagonalization with overlap
     ethr =  2.12E-05,  avg # of iterations =  3.2

     negative rho (up, down):  0.000E+00 1.035E-03

     Magnetic moment per site:
     atom:    1    charge:   14.7714    magn:    3.0012    constr:    0.0000
     atom:    2    charge:   14.7714    magn:    3.0012    constr:    0.0000

     total cpu time spent up to now is       59.2 secs

     total energy              =    -658.40674705 Ry
     Harris-Foulkes estimate   =    -658.40577684 Ry
     estimated scf accuracy    <       0.00077689 Ry

     total magnetization       =     5.84 Bohr mag/cell
     absolute magnetization    =     6.21 Bohr mag/cell

     iteration #  6     ecut=    50.00 Ry     beta=0.70
     Davidson diagonalization with overlap
     ethr =  2.43E-06,  avg # of iterations =  2.0

     negative rho (up, down):  0.000E+00 1.025E-03

     Magnetic moment per site:
     atom:    1    charge:   14.7716    magn:    2.9960    constr:    0.0000
     atom:    2    charge:   14.7716    magn:    2.9960    constr:    0.0000

     total cpu time spent up to now is       69.3 secs

     total energy              =    -658.40734754 Ry
     Harris-Foulkes estimate   =    -658.40697749 Ry
     estimated scf accuracy    <       0.00056585 Ry

     total magnetization       =     5.83 Bohr mag/cell
     absolute magnetization    =     6.20 Bohr mag/cell

     iteration #  7     ecut=    50.00 Ry     beta=0.70
     Davidson diagonalization with overlap
     ethr =  1.77E-06,  avg # of iterations =  1.8

     negative rho (up, down):  0.000E+00 1.014E-03

     Magnetic moment per site:
     atom:    1    charge:   14.7789    magn:    2.9728    constr:    0.0000
     atom:    2    charge:   14.7789    magn:    2.9728    constr:    0.0000

     total cpu time spent up to now is       77.6 secs

     total energy              =    -658.40797495 Ry
     Harris-Foulkes estimate   =    -658.40745280 Ry
     estimated scf accuracy    <       0.00046267 Ry

     total magnetization       =     5.82 Bohr mag/cell
     absolute magnetization    =     6.18 Bohr mag/cell

     iteration #  8     ecut=    50.00 Ry     beta=0.70
     Davidson diagonalization with overlap
     ethr =  1.45E-06,  avg # of iterations =  2.5

     negative rho (up, down):  0.000E+00 9.623E-04

     Magnetic moment per site:
     atom:    1    charge:   14.7772    magn:    2.9452    constr:    0.0000
     atom:    2    charge:   14.7772    magn:    2.9452    constr:    0.0000

     total cpu time spent up to now is       86.7 secs

     total energy              =    -658.40590185 Ry
     Harris-Foulkes estimate   =    -658.40820463 Ry
     estimated scf accuracy    <       0.00046189 Ry

     total magnetization       =     5.79 Bohr mag/cell
     absolute magnetization    =     6.14 Bohr mag/cell

     iteration #  9     ecut=    50.00 Ry     beta=0.70
     Davidson diagonalization with overlap
     ethr =  1.44E-06,  avg # of iterations =  3.2

     negative rho (up, down):  0.000E+00 9.579E-04

     Magnetic moment per site:
     atom:    1    charge:   14.7781    magn:    2.9391    constr:    0.0000
     atom:    2    charge:   14.7781    magn:    2.9391    constr:    0.0000

     total cpu time spent up to now is       98.4 secs

     total energy              =    -658.40692868 Ry
     Harris-Foulkes estimate   =    -658.40655367 Ry
     estimated scf accuracy    <       0.00051290 Ry

     total magnetization       =     5.77 Bohr mag/cell
     absolute magnetization    =     6.10 Bohr mag/cell

     iteration # 10     ecut=    50.00 Ry     beta=0.70
     Davidson diagonalization with overlap
     ethr =  1.44E-06,  avg # of iterations =  1.3

     negative rho (up, down):  0.000E+00 9.851E-04

     Magnetic moment per site:
     atom:    1    charge:   14.7749    magn:    2.9651    constr:    0.0000
     atom:    2    charge:   14.7749    magn:    2.9651    constr:    0.0000

     total cpu time spent up to now is      107.2 secs

     total energy              =    -658.40827330 Ry
     Harris-Foulkes estimate   =    -658.40697725 Ry
     estimated scf accuracy    <       0.00064054 Ry

     total magnetization       =     5.76 Bohr mag/cell
     absolute magnetization    =     6.09 Bohr mag/cell

     iteration # 11     ecut=    50.00 Ry     beta=0.70
     Davidson diagonalization with overlap
     ethr =  1.44E-06,  avg # of iterations =  2.2

     negative rho (up, down):  0.000E+00 9.926E-04

     Magnetic moment per site:
     atom:    1    charge:   14.7722    magn:    2.9794    constr:    0.0000
     atom:    2    charge:   14.7722    magn:    2.9794    constr:    0.0000

     total cpu time spent up to now is      121.9 secs

     total energy              =    -658.40800141 Ry
     Harris-Foulkes estimate   =    -658.40841807 Ry
     estimated scf accuracy    <       0.00002302 Ry

     total magnetization       =     5.77 Bohr mag/cell
     absolute magnetization    =     6.11 Bohr mag/cell

     iteration # 12     ecut=    50.00 Ry     beta=0.70
     Davidson diagonalization with overlap
     ethr =  7.19E-08,  avg # of iterations =  3.6

     negative rho (up, down):  0.000E+00 9.876E-04

     Magnetic moment per site:
     atom:    1    charge:   14.7731    magn:    2.9735    constr:    0.0000
     atom:    2    charge:   14.7731    magn:    2.9735    constr:    0.0000

     total cpu time spent up to now is      134.1 secs

     total energy              =    -658.40832818 Ry
     Harris-Foulkes estimate   =    -658.40806527 Ry
     estimated scf accuracy    <       0.00019369 Ry

     total magnetization       =     5.79 Bohr mag/cell
     absolute magnetization    =     6.13 Bohr mag/cell

     iteration # 13     ecut=    50.00 Ry     beta=0.70
     Davidson diagonalization with overlap
     ethr =  7.19E-08,  avg # of iterations =  2.0

     negative rho (up, down):  0.000E+00 9.817E-04

     Magnetic moment per site:
     atom:    1    charge:   14.7738    magn:    2.9673    constr:    0.0000
     atom:    2    charge:   14.7738    magn:    2.9673    constr:    0.0000

     total cpu time spent up to now is      143.7 secs

     total energy              =    -658.40841062 Ry
     Harris-Foulkes estimate   =    -658.40833320 Ry
     estimated scf accuracy    <       0.00006702 Ry

     total magnetization       =     5.78 Bohr mag/cell
     absolute magnetization    =     6.12 Bohr mag/cell

     iteration # 14     ecut=    50.00 Ry     beta=0.70
     Davidson diagonalization with overlap
     ethr =  7.19E-08,  avg # of iterations =  2.4

     negative rho (up, down):  0.000E+00 9.815E-04

     Magnetic moment per site:
     atom:    1    charge:   14.7738    magn:    2.9669    constr:    0.0000
     atom:    2    charge:   14.7738    magn:    2.9669    constr:    0.0000

     total cpu time spent up to now is      152.8 secs

     total energy              =    -658.40841599 Ry
     Harris-Foulkes estimate   =    -658.40841936 Ry
     estimated scf accuracy    <       0.00000768 Ry

     total magnetization       =     5.78 Bohr mag/cell
     absolute magnetization    =     6.12 Bohr mag/cell

     iteration # 15     ecut=    50.00 Ry     beta=0.70
     Davidson diagonalization with overlap
     ethr =  2.40E-08,  avg # of iterations =  1.0

     negative rho (up, down):  0.000E+00 9.792E-04

     Magnetic moment per site:
     atom:    1    charge:   14.7740    magn:    2.9646    constr:    0.0000
     atom:    2    charge:   14.7740    magn:    2.9646    constr:    0.0000

     total cpu time spent up to now is      160.9 secs

     total energy              =    -658.40842312 Ry
     Harris-Foulkes estimate   =    -658.40841613 Ry
     estimated scf accuracy    <       0.00000920 Ry

     total magnetization       =     5.78 Bohr mag/cell
     absolute magnetization    =     6.12 Bohr mag/cell

     iteration # 16     ecut=    50.00 Ry     beta=0.70
     Davidson diagonalization with overlap
     ethr =  2.40E-08,  avg # of iterations =  2.0

     negative rho (up, down):  0.000E+00 9.779E-04

     Magnetic moment per site:
     atom:    1    charge:   14.7741    magn:    2.9633    constr:    0.0000
     atom:    2    charge:   14.7741    magn:    2.9633    constr:    0.0000

     total cpu time spent up to now is      169.7 secs

     total energy              =    -658.40842493 Ry
     Harris-Foulkes estimate   =    -658.40842459 Ry
     estimated scf accuracy    <       0.00000146 Ry

     total magnetization       =     5.78 Bohr mag/cell
     absolute magnetization    =     6.11 Bohr mag/cell

     iteration # 17     ecut=    50.00 Ry     beta=0.70
     Davidson diagonalization with overlap
     ethr =  4.58E-09,  avg # of iterations =  3.1

     negative rho (up, down):  0.000E+00 9.776E-04

     Magnetic moment per site:
     atom:    1    charge:   14.7742    magn:    2.9629    constr:    0.0000
     atom:    2    charge:   14.7742    magn:    2.9629    constr:    0.0000

     total cpu time spent up to now is      179.0 secs

     total energy              =    -658.40842591 Ry
     Harris-Foulkes estimate   =    -658.40842559 Ry
     estimated scf accuracy    <       0.00000007 Ry

     total magnetization       =     5.77 Bohr mag/cell
     absolute magnetization    =     6.11 Bohr mag/cell

     iteration # 18     ecut=    50.00 Ry     beta=0.70
     Davidson diagonalization with overlap
     ethr =  2.23E-10,  avg # of iterations =  3.8

     negative rho (up, down):  0.000E+00 9.775E-04

     Magnetic moment per site:
     atom:    1    charge:   14.7742    magn:    2.9628    constr:    0.0000
     atom:    2    charge:   14.7742    magn:    2.9628    constr:    0.0000

     total cpu time spent up to now is      191.8 secs

     total energy              =    -658.40842612 Ry
     Harris-Foulkes estimate   =    -658.40842600 Ry
     estimated scf accuracy    <       0.00000002 Ry

     total magnetization       =     5.77 Bohr mag/cell
     absolute magnetization    =     6.11 Bohr mag/cell

     iteration # 19     ecut=    50.00 Ry     beta=0.70
     Davidson diagonalization with overlap
     ethr =  5.92E-11,  avg # of iterations =  3.0

     negative rho (up, down):  0.000E+00 9.772E-04

     Magnetic moment per site:
     atom:    1    charge:   14.7742    magn:    2.9625    constr:    0.0000
     atom:    2    charge:   14.7742    magn:    2.9625    constr:    0.0000

     total cpu time spent up to now is      200.5 secs

     total energy              =    -658.40842606 Ry
     Harris-Foulkes estimate   =    -658.40842613 Ry
     estimated scf accuracy    <       0.00000001 Ry

     total magnetization       =     5.77 Bohr mag/cell
     absolute magnetization    =     6.11 Bohr mag/cell

     iteration # 20     ecut=    50.00 Ry     beta=0.70
     Davidson diagonalization with overlap
     ethr =  4.24E-11,  avg # of iterations =  3.8

     negative rho (up, down):  0.000E+00 9.774E-04

     Magnetic moment per site:
     atom:    1    charge:   14.7742    magn:    2.9626    constr:    0.0000
     atom:    2    charge:   14.7742    magn:    2.9626    constr:    0.0000

     total cpu time spent up to now is      211.5 secs

     total energy              =    -658.40842618 Ry
     Harris-Foulkes estimate   =    -658.40842609 Ry
     estimated scf accuracy    <       0.00000001 Ry

     total magnetization       =     5.77 Bohr mag/cell
     absolute magnetization    =     6.11 Bohr mag/cell

     iteration # 21     ecut=    50.00 Ry     beta=0.70
     Davidson diagonalization with overlap
     ethr =  3.86E-11,  avg # of iterations =  2.2

     negative rho (up, down):  0.000E+00 9.773E-04

     Magnetic moment per site:
     atom:    1    charge:   14.7742    magn:    2.9626    constr:    0.0000
     atom:    2    charge:   14.7742    magn:    2.9626    constr:    0.0000

     total cpu time spent up to now is      222.0 secs

     End of self-consistent calculation

 ------ SPIN UP ------------


          k = 0.0000 0.0000 0.0000 (  1401 PWs)   bands (ev):

   -77.7946 -77.7879 -43.8530 -43.8530 -43.8449 -43.8449 -43.7716 -43.7070
     3.9653   7.0245   8.3250   8.3250   8.4462   8.4462   8.5210   8.5210
     8.5783   8.9719   8.9719  10.2515

          k = 0.0000 0.0000 0.1156 (  1401 PWs)   bands (ev):

   -77.7939 -77.7884 -43.8522 -43.8522 -43.8458 -43.8458 -43.7654 -43.7145
     4.2227   6.8164   8.2820   8.2820   8.4035   8.4035   8.5422   8.6195
     8.6195   8.9611   8.9611   9.3043

          k = 0.0000 0.0000 0.2312 (  1407 PWs)   bands (ev):

   -77.7923 -77.7901 -43.8501 -43.8501 -43.8480 -43.8480 -43.7505 -43.7312
     4.9568   6.0000   8.2670   8.2670   8.3199   8.3199   8.4792   8.5728
     8.7792   8.7792   8.9033   8.9033

          k = 0.0000 0.1155 0.0000 (  1411 PWs)   bands (ev):

   -77.7939 -77.7872 -43.8597 -43.8553 -43.8525 -43.8464 -43.7697 -43.7090
     4.2245   7.1916   8.2344   8.3933   8.3954   8.4203   8.4739   8.5340
     8.6085   8.6689   8.9851  10.9299

          k = 0.0000 0.1155 0.1156 (  1418 PWs)   bands (ev):

   -77.7934 -77.7879 -43.8594 -43.8544 -43.8536 -43.8476 -43.7640 -43.7151
     4.4771   7.0001   8.2101   8.2633   8.3492   8.4295   8.4817   8.5651
     8.6116   8.7305   8.9712   9.9257

          k = 0.0000 0.1155 0.2312 (  1431 PWs)   bands (ev):

   -77.7918 -77.7898 -43.8583 -43.8560 -43.8528 -43.8501 -43.7490 -43.7306
     5.1973   6.2146   8.1575   8.1891   8.3358   8.3948   8.4024   8.4600
     8.7769   8.8952   8.9067   9.1825

          k = 0.0000 0.2309 0.0000 (  1413 PWs)   bands (ev):

   -77.7914 -77.7858 -43.8785 -43.8709 -43.8610 -43.8502 -43.7635 -43.7104
     4.9708   7.5220   7.8941   8.1239   8.3078   8.3639   8.3968   8.6800
     8.7709   8.8967   9.0067  12.2301

          k = 0.0000 0.2309 0.1156 (  1432 PWs)   bands (ev):

   -77.7912 -77.7866 -43.8784 -43.8720 -43.8601 -43.8519 -43.7589 -43.7161
     5.2021   7.3729   7.8569   8.1065   8.2816   8.3834   8.4358   8.6832
     8.7525   8.9302   8.9982  10.7804

          k = 0.0000 0.2309 0.2312 (  1429 PWs)   bands (ev):

   -77.7897 -77.7879 -43.8766 -43.8741 -43.8577 -43.8545 -43.7452 -43.7290
     5.8526   6.7254   7.9292   8.0485   8.3148   8.3978   8.4524   8.5688
     8.8447   8.9449   9.1103   9.6212

          k = 0.0000 0.3464 0.0000 (  1432 PWs)   bands (ev):

   -77.7886 -77.7842 -43.9013 -43.8931 -43.8675 -43.8554 -43.7555 -43.7141
     6.0426   7.4794   7.4963   8.1607   8.2312   8.2434   8.5528   9.0189
     9.0225   9.0816   9.2921  13.8198

          k = 0.0000 0.3464 0.1156 (  1434 PWs)   bands (ev):

   -77.7883 -77.7847 -43.9007 -43.8939 -43.8665 -43.8570 -43.7514 -43.7180
     6.1975   7.3456   7.6100   7.9732   8.3009   8.4904   8.5831   8.8879
     9.0432   9.1237   9.2611  11.7844

          k = 0.0000 0.3464 0.2312 (  1426 PWs)   bands (ev):

   -77.7871 -77.7856 -43.8992 -43.8966 -43.8634 -43.8598 -43.7401 -43.7276
     6.5836   7.0235   7.7711   7.8905   8.4589   8.6744   8.6753   8.7565
     9.0832   9.1214   9.3479  10.1898

          k = 0.0000 0.4619 0.0000 (  1428 PWs)   bands (ev):

   -77.7860 -77.7828 -43.9195 -43.9107 -43.8723 -43.8596 -43.7466 -43.7184
     6.8863   7.2371   7.3143   8.1031   8.1535   8.5122   8.8708   9.0218
     9.3122   9.3585  10.0540  14.2037

          k = 0.0000 0.4619 0.1156 (  1440 PWs)   bands (ev):

   -77.7858 -77.7833 -43.9190 -43.9126 -43.8713 -43.8612 -43.7437 -43.7209
     6.8197   7.2196   7.4877   7.8347   8.2255   8.8152   8.9210   9.1080
     9.3201   9.3625   9.9644  12.9289

          k = 0.0000 0.4619 0.2312 (  1431 PWs)   bands (ev):

   -77.7850 -77.7839 -43.9174 -43.9150 -43.8682 -43.8643 -43.7354 -43.7273
     6.8510   7.0374   7.6659   7.7321   8.4220   8.6845   9.1627   9.3385
     9.3568   9.5360  10.0559  11.2547

          k = 0.0000-0.5774 0.0000 (  1432 PWs)   bands (ev):

   -77.7848 -77.7827 -43.9261 -43.9184 -43.8744 -43.8609 -43.7422 -43.7207
     7.1070   7.1585   7.2073   8.0547   8.1206   8.8584   8.9476   9.0218
     9.4224   9.4752  11.2691  12.3855

          k = 0.0000-0.5774 0.1156 (  1438 PWs)   bands (ev):

   -77.7848 -77.7828 -43.9260 -43.9192 -43.8731 -43.8624 -43.7398 -43.7233
     6.8943   7.1896   7.4699   7.7855   8.1969   8.9230   8.9437   9.3591
     9.4294   9.4708  11.2229  12.3083

          k = 0.0000-0.5774 0.2312 (  1438 PWs)   bands (ev):

   -77.7842 -77.7833 -43.9246 -43.9217 -43.8699 -43.8662 -43.7337 -43.7275
     6.8660   7.0284   7.6483   7.6520   8.4048   8.6806   9.2879   9.4439
     9.4592   9.6498  11.3909  11.9698

          k = 0.1000 0.1732 0.0000 (  1424 PWs)   bands (ev):

   -77.7925 -77.7863 -43.8721 -43.8666 -43.8579 -43.8510 -43.7656 -43.7104
     4.7287   7.4682   8.0513   8.0925   8.3133   8.3212   8.5147   8.6274
     8.6630   8.8490   8.9898  11.8497

          k = 0.1000 0.1732 0.1156 (  1428 PWs)   bands (ev):

   -77.7920 -77.7869 -43.8716 -43.8670 -43.8572 -43.8518 -43.7605 -43.7159
     4.9692   7.3044   7.9627   8.0904   8.3190   8.3634   8.4555   8.6182
     8.7109   8.8778   8.9836  10.5459

          k = 0.1000 0.1732 0.2312 (  1429 PWs)   bands (ev):

   -77.7904 -77.7884 -43.8702 -43.8684 -43.8560 -43.8541 -43.7463 -43.7294
     5.6496   6.5891   7.9856   8.0736   8.3078   8.3573   8.4426   8.5240
     8.8315   8.9336   9.0498   9.5009

          k = 0.1000 0.2887 0.0000 (  1431 PWs)   bands (ev):

   -77.7899 -77.7846 -43.8908 -43.8855 -43.8654 -43.8568 -43.7583 -43.7130
     5.6602   7.6346   7.6719   8.0152   8.1619   8.3140   8.3989   8.8767
     8.9893   8.9941   9.2109  13.2387

          k = 0.1000 0.2887 0.1156 (  1431 PWs)   bands (ev):

   -77.7893 -77.7852 -43.8905 -43.8860 -43.8649 -43.8576 -43.7539 -43.7172
     5.8586   7.4732   7.7396   8.0000   8.2186   8.3390   8.3890   8.8037
     9.0061   9.0360   9.2127  11.4259

          k = 0.1000 0.2887 0.2312 (  1419 PWs)   bands (ev):

   -77.7878 -77.7863 -43.8891 -43.8872 -43.8627 -43.8599 -43.7418 -43.7280
     6.3899   7.0235   7.8641   7.9742   8.2801   8.3444   8.4659   8.6388
     9.1091   9.1625   9.2566   9.9823

          k = 0.1000 0.4041 0.0000 (  1434 PWs)   bands (ev):

   -77.7869 -77.7833 -43.9101 -43.9032 -43.8731 -43.8618 -43.7500 -43.7172
     6.7065   7.3462   7.4931   8.0613   8.1587   8.2444   8.6121   8.9858
     9.1523   9.3456   9.7987  14.6720

          k = 0.1000 0.4041 0.1156 (  1432 PWs)   bands (ev):

   -77.7865 -77.7836 -43.9098 -43.9044 -43.8722 -43.8629 -43.7463 -43.7197
     6.7488   7.3223   7.5742   7.8898   8.2330   8.4953   8.6343   8.8787
     9.1886   9.3963   9.7705  12.5973

          k = 0.1000 0.4041 0.2312 (  1428 PWs)   bands (ev):

   -77.7856 -77.7844 -43.9087 -43.9067 -43.8696 -43.8659 -43.7369 -43.7271
     6.8929   7.1237   7.7442   7.8521   8.3539   8.5827   8.7460   8.7789
     9.3700   9.5040   9.8683  10.8859

          k = 0.1000 0.5196 0.0000 (  1434 PWs)   bands (ev):

   -77.7849 -77.7825 -43.9225 -43.9142 -43.8774 -43.8653 -43.7426 -43.7216
     7.1784   7.2058   7.3364   8.0386   8.1123   8.5830   8.8110   8.9819
     9.3881   9.5194  10.9613  13.3193

          k = 0.1000 0.5196 0.1156 (  1433 PWs)   bands (ev):

   -77.7847 -77.7827 -43.9222 -43.9155 -43.8765 -43.8665 -43.7399 -43.7229
     6.9795   7.2977   7.5342   7.8002   8.1356   8.8296   8.8701   8.9493
     9.3959   9.5819  10.9883  13.0990

          k = 0.1000 0.5196 0.2312 (  1431 PWs)   bands (ev):

   -77.7840 -77.7833 -43.9207 -43.9182 -43.8734 -43.8697 -43.7336 -43.7274
     6.9622   7.1279   7.6918   7.7434   8.2955   8.5915   9.0710   9.1370
     9.4731   9.6406  11.3068  12.1871

          k = 0.2000 0.3464 0.0000 (  1440 PWs)   bands (ev):

   -77.7872 -77.7836 -43.9018 -43.9010 -43.8746 -43.8665 -43.7512 -43.7165
     6.6496   7.4217   7.7721   7.8484   8.0027   8.3083   8.4094   8.9460
     9.0354   9.3894   9.7831  14.6713

          k = 0.2000 0.3464 0.1156 (  1438 PWs)   bands (ev):

   -77.7870 -77.7837 -43.9018 -43.9015 -43.8738 -43.8674 -43.7471 -43.7197
     6.7447   7.3689   7.7864   7.9088   8.1237   8.2702   8.4007   8.8253
     9.1210   9.4320   9.7889  12.4845

          k = 0.2000 0.3464 0.2312 (  1416 PWs)   bands (ev):

   -77.7856 -77.7844 -43.9018 -43.9014 -43.8719 -43.8693 -43.7373 -43.7271
     6.9746   7.2119   7.8689   7.9573   8.2641   8.2733   8.4284   8.6041
     9.4023   9.5009   9.9144  10.8230

          k = 0.2000 0.4619 0.0000 (  1446 PWs)   bands (ev):

   -77.7851 -77.7828 -43.9136 -43.9085 -43.8842 -43.8746 -43.7428 -43.7217
     7.2989   7.3973   7.6150   7.9480   8.0355   8.1530   8.6107   8.9120
     9.2508   9.5838  10.8045  15.0531

          k = 0.2000 0.4619 0.1156 (  1435 PWs)   bands (ev):

   -77.7847 -77.7828 -43.9133 -43.9089 -43.8835 -43.8756 -43.7397 -43.7228
     7.2079   7.4480   7.6550   7.8792   8.0859   8.3070   8.6217   8.8100
     9.3085   9.6200  10.8900  13.8981

          k = 0.2000 0.4619 0.2312 (  1438 PWs)   bands (ev):

   -77.7841 -77.7834 -43.9123 -43.9107 -43.8816 -43.8786 -43.7336 -43.7271
     7.1988   7.3120   7.7969   7.9399   8.1202   8.3569   8.6563   8.6773
     9.5016   9.6419  11.2877  12.3016

          k = 0.2000 0.5774 0.0000 (  1448 PWs)   bands (ev):

   -77.7841 -77.7826 -43.9182 -43.9100 -43.8891 -43.8780 -43.7380 -43.7252
     7.2605   7.5177   7.5467   7.9922   8.0266   8.2716   8.7107   8.8996
     9.3940   9.5852  12.3214  12.9695

          k = 0.2000 0.5774 0.1156 (  1433 PWs)   bands (ev):

   -77.7838 -77.7824 -43.9176 -43.9108 -43.8878 -43.8790 -43.7355 -43.7254
     7.1919   7.5559   7.6974   7.7869   7.9889   8.4617   8.7443   8.8128
     9.4272   9.6243  12.4852  13.0285

          k = 0.2000 0.5774 0.2312 (  1443 PWs)   bands (ev):

   -77.7835 -77.7830 -43.9163 -43.9137 -43.8856 -43.8823 -43.7317 -43.7274
     7.2038   7.3695   7.7885   7.9136   8.0233   8.3543   8.7936   8.8053
     9.5387   9.6442  12.9071  13.1384

          k = 0.3000 0.5196 0.0000 (  1432 PWs)   bands (ev):

   -77.7833 -77.7825 -43.9111 -43.9048 -43.8960 -43.8878 -43.7351 -43.7268
     7.3103   7.7180   7.8560   7.9023   7.9283   8.0190   8.6136   8.8572
     9.4039   9.5692  12.4620  14.6738

          k = 0.3000 0.5196 0.1156 (  1446 PWs)   bands (ev):

   -77.7834 -77.7828 -43.9106 -43.9058 -43.8963 -43.8893 -43.7336 -43.7272
     7.3587   7.6392   7.8033   7.8144   8.0588   8.1299   8.6010   8.7585
     9.4527   9.6003  12.6371  14.6907

          k = 0.3000 0.5196 0.2312 (  1446 PWs)   bands (ev):

   -77.7831 -77.7830 -43.9086 -43.9073 -43.8954 -43.8922 -43.7307 -43.7279
     7.4487   7.5210   7.7961   7.8164   8.1244   8.1979   8.5835   8.6124
     9.5651   9.6289  13.1846  14.0934

 ------ SPIN DOWN ----------


          k = 0.0000 0.0000 0.0000 (  1401 PWs)   bands (ev):

   -74.4060 -74.3982 -40.5179 -40.5179 -40.5085 -40.5085 -40.5062 -40.4305
     4.2218   8.0174  10.2568  10.3584  10.9848  10.9848  11.1532  11.1532
    12.1960  12.1960  12.7959  12.7959

          k = 0.0000 0.0000 0.1156 (  1401 PWs)   bands (ev):

   -74.4053 -74.3990 -40.5168 -40.5168 -40.5095 -40.5095 -40.4991 -40.4388
     4.4803   7.5244  10.0535  10.1969  10.9812  10.9812  11.1203  11.1203
    12.2746  12.2746  12.7576  12.7576

          k = 0.0000 0.0000 0.2312 (  1407 PWs)   bands (ev):

   -74.4035 -74.4010 -40.5146 -40.5146 -40.5120 -40.5120 -40.4809 -40.4582
     5.2262   6.3531   9.9327  10.0525  10.9953  10.9953  11.0500  11.0500
    12.4556  12.4556  12.6389  12.6389

          k = 0.0000 0.1155 0.0000 (  1411 PWs)   bands (ev):

   -74.4052 -74.3975 -40.5258 -40.5204 -40.5174 -40.5102 -40.5039 -40.4322
     4.4818   8.2184  10.2397  10.2931  10.9063  11.0742  11.1003  11.2600
    12.0841  12.1244  12.8177  13.1741

          k = 0.0000 0.1155 0.1156 (  1418 PWs)   bands (ev):

   -74.4045 -74.3983 -40.5257 -40.5194 -40.5186 -40.5116 -40.4967 -40.4393
     4.7373   7.7423   9.9941  10.2403  10.8854  11.0523  11.0942  11.2262
    12.1791  12.2133  12.7692  12.9078

          k = 0.0000 0.1155 0.2312 (  1431 PWs)   bands (ev):

   -74.4027 -74.4005 -40.5243 -40.5214 -40.5174 -40.5143 -40.4788 -40.4571
     5.4761   6.5913   9.9350  10.0889  10.8908  10.9655  11.1042  11.1563
    12.4066  12.4166  12.6264  12.6571

          k = 0.0000 0.2309 0.0000 (  1413 PWs)   bands (ev):

   -74.4023 -74.3959 -40.5477 -40.5389 -40.5269 -40.5147 -40.4966 -40.4341
     5.2407   8.7322  10.0412  10.2916  10.7332  11.0059  11.4195  11.5503
    11.8383  11.9603  12.8526  14.0943

          k = 0.0000 0.2309 0.1156 (  1432 PWs)   bands (ev):

   -74.4019 -74.3966 -40.5479 -40.5405 -40.5259 -40.5165 -40.4904 -40.4403
     5.4857   8.3296   9.8789  10.2984  10.6733  10.9424  11.4026  11.5130
    11.9753  12.0766  12.7813  13.2404

          k = 0.0000 0.2309 0.2312 (  1429 PWs)   bands (ev):

   -74.4003 -74.3983 -40.5463 -40.5433 -40.5231 -40.5195 -40.4739 -40.4550
     6.1969   7.2639   9.9389  10.1759  10.6427  10.7871  11.4002  11.4457
    12.3001  12.3254  12.5873  12.6991

          k = 0.0000 0.3464 0.0000 (  1432 PWs)   bands (ev):

   -74.3990 -74.3939 -40.5745 -40.5652 -40.5345 -40.5207 -40.4869 -40.4383
     6.4116   9.2215   9.9120  10.1663  10.5358  11.3116  11.5407  11.7835
    11.8535  11.9357  12.8721  15.0666

          k = 0.0000 0.3464 0.1156 (  1434 PWs)   bands (ev):

   -74.3986 -74.3944 -40.5743 -40.5665 -40.5333 -40.5224 -40.4815 -40.4424
     6.6353   8.9961   9.7807  10.2683  10.4589  11.0669  11.7514  11.8035
    11.8902  12.0044  12.7749  13.6587

          k = 0.0000 0.3464 0.2312 (  1426 PWs)   bands (ev):

   -74.3972 -74.3956 -40.5731 -40.5701 -40.5298 -40.5257 -40.4679 -40.4533
     7.2682   8.1781   9.9108  10.2046  10.4751  10.7549  11.7716  11.8337
    12.2138  12.2453  12.5324  12.7690

          k = 0.0000 0.4619 0.0000 (  1428 PWs)   bands (ev):

   -74.3959 -74.3923 -40.5960 -40.5860 -40.5401 -40.5255 -40.4764 -40.4434
     7.7651   9.2840   9.8777   9.9992  10.5805  11.2876  11.6530  11.9446
    12.2342  12.2863  12.8770  14.9900

          k = 0.0000 0.4619 0.1156 (  1440 PWs)   bands (ev):

   -74.3957 -74.3928 -40.5959 -40.5882 -40.5390 -40.5272 -40.4725 -40.4458
     7.9214   9.2233   9.7443  10.1486  10.5411  11.3004  11.7406  11.9657
    12.2510  12.2666  12.7531  14.0365

          k = 0.0000 0.4619 0.2312 (  1431 PWs)   bands (ev):

   -74.3948 -74.3935 -40.5946 -40.5917 -40.5354 -40.5308 -40.4625 -40.4528
     8.3400   8.8587   9.8468  10.0790  10.7216  11.0947  11.9688  12.1857
    12.2415  12.3115  12.4837  12.9115

          k = 0.0000-0.5774 0.0000 (  1432 PWs)   bands (ev):

   -74.3945 -74.3920 -40.6040 -40.5947 -40.5425 -40.5271 -40.4712 -40.4462
     8.5916   9.1304   9.8727   9.8803  10.6417  11.1845  11.6054  12.3780
    12.4419  12.6797  12.8771  13.7536

          k = 0.0000-0.5774 0.1156 (  1438 PWs)   bands (ev):

   -74.3945 -74.3922 -40.6042 -40.5961 -40.5411 -40.5288 -40.4680 -40.4485
     8.6524   9.1184   9.8075   9.9802  10.6353  11.4539  11.7052  12.3800
    12.4331  12.4376  12.7333  13.5702

          k = 0.0000-0.5774 0.2312 (  1438 PWs)   bands (ev):

   -74.3939 -74.3929 -40.6030 -40.5997 -40.5374 -40.5330 -40.4603 -40.4531
     8.8093   9.0014   9.8514  10.0121  10.9135  11.5517  11.9806  12.3228
    12.3263  12.4278  12.4489  13.0198

          k = 0.1000 0.1732 0.0000 (  1424 PWs)   bands (ev):

   -74.4034 -74.3964 -40.5400 -40.5339 -40.5234 -40.5154 -40.4990 -40.4339
     4.9915   8.5807  10.0930  10.3061  10.8261  10.9288  11.3279  11.4746
    11.8691  12.0586  12.8260  13.8165

          k = 0.1000 0.1732 0.1156 (  1428 PWs)   bands (ev):

   -74.4028 -74.3971 -40.5399 -40.5345 -40.5228 -40.5163 -40.4923 -40.4400
     5.2408   8.1501   9.9121  10.2918  10.7410  10.9284  11.3116  11.4347
    12.0224  12.1335  12.7625  13.1534

          k = 0.1000 0.1732 0.2312 (  1429 PWs)   bands (ev):

   -74.4011 -74.3989 -40.5387 -40.5365 -40.5213 -40.5189 -40.4753 -40.4555
     5.9622   7.0492   9.9408  10.1546  10.7043  10.8185  11.3149  11.3643
    12.3388  12.3449  12.5860  12.6985

          k = 0.1000 0.2887 0.0000 (  1431 PWs)   bands (ev):

   -74.4004 -74.3945 -40.5621 -40.5561 -40.5322 -40.5221 -40.4903 -40.4369
     5.9624   9.1228   9.9608  10.1682  10.6777  10.9974  11.5987  11.7112
    11.8560  11.8899  12.8270  14.9034

          k = 0.1000 0.2887 0.1156 (  1431 PWs)   bands (ev):

   -74.3998 -74.3951 -40.5622 -40.5570 -40.5315 -40.5231 -40.4846 -40.4415
     6.1966   8.8188   9.8189  10.2285  10.6065  10.8654  11.6336  11.7526
    11.8874  12.0314  12.7426  13.5425

          k = 0.1000 0.2887 0.2312 (  1419 PWs)   bands (ev):

   -74.3982 -74.3964 -40.5613 -40.5590 -40.5292 -40.5259 -40.4698 -40.4536
     6.8728   7.8653   9.9456  10.2492  10.4393  10.6539  11.6509  11.7250
    12.2535  12.2657  12.5277  12.7761

          k = 0.1000 0.4041 0.0000 (  1434 PWs)   bands (ev):

   -74.3969 -74.3929 -40.5851 -40.5771 -40.5411 -40.5282 -40.4802 -40.4417
     7.2566   9.4022   9.9172  10.0132  10.5907  11.3582  11.4240  11.6793
    12.0819  12.3079  12.8228  15.4508

          k = 0.1000 0.4041 0.1156 (  1432 PWs)   bands (ev):

   -74.3965 -74.3932 -40.5851 -40.5787 -40.5401 -40.5295 -40.4755 -40.4444
     7.4516   9.3143   9.7544  10.1601  10.4957  11.0772  11.6827  11.7426
    12.1767  12.2591  12.7319  14.0981

          k = 0.1000 0.4041 0.2312 (  1428 PWs)   bands (ev):

   -74.3955 -74.3942 -40.5843 -40.5818 -40.5371 -40.5330 -40.4641 -40.4527
     7.9942   8.7306   9.8979  10.1850  10.4403  10.7379  11.8311  12.0592
    12.1927  12.3579  12.5669  12.9909

          k = 0.1000 0.5196 0.0000 (  1434 PWs)   bands (ev):

   -74.3947 -74.3919 -40.5997 -40.5900 -40.5463 -40.5322 -40.4715 -40.4468
     8.4673   9.3018   9.8539   9.9334  10.6822  11.2032  11.5408  11.9960
    12.2498  12.8171  12.8291  14.4742

          k = 0.1000 0.5196 0.1156 (  1433 PWs)   bands (ev):

   -74.3944 -74.3922 -40.5996 -40.5918 -40.5452 -40.5336 -40.4680 -40.4482
     8.5701   9.2911   9.7679  10.0808  10.6084  11.2347  11.6513  12.0177
    12.2797  12.5601  12.8927  14.1574

          k = 0.1000 0.5196 0.2312 (  1431 PWs)   bands (ev):

   -74.3937 -74.3929 -40.5984 -40.5954 -40.5418 -40.5374 -40.4602 -40.4528
     8.8271   9.1185   9.8730  10.0941  10.7057  11.0768  11.9088  12.1560
    12.1697  12.3517  12.9548  13.4371

          k = 0.2000 0.3464 0.0000 (  1440 PWs)   bands (ev):

   -74.3973 -74.3931 -40.5751 -40.5746 -40.5427 -40.5334 -40.4816 -40.4410
     7.0764   9.5249   9.9277   9.9553  10.7139  11.0835  11.3569  11.7086
    12.0235  12.3432  12.7658  15.5643

          k = 0.2000 0.3464 0.1156 (  1438 PWs)   bands (ev):

   -74.3971 -74.3934 -40.5756 -40.5752 -40.5421 -40.5347 -40.4765 -40.4443
     7.2820   9.4368   9.7701   9.9988  10.7224  10.7691  11.5973  11.6961
    12.1929  12.2644  12.7065  14.1455

          k = 0.2000 0.3464 0.2312 (  1416 PWs)   bands (ev):

   -74.3957 -74.3943 -40.5762 -40.5757 -40.5402 -40.5371 -40.4645 -40.4525
     7.8710   8.7014   9.9653  10.1823  10.3754  10.5090  11.7324  12.0233
    12.2041  12.3614  12.6255  13.0656

          k = 0.2000 0.4619 0.0000 (  1446 PWs)   bands (ev):

   -74.3948 -74.3921 -40.5891 -40.5830 -40.5542 -40.5431 -40.4717 -40.4469
     8.3248   9.5747   9.7878  10.0330  10.8153  11.2051  11.4383  11.4566
    12.1175  12.7174  12.9652  15.9000

          k = 0.2000 0.4619 0.1156 (  1435 PWs)   bands (ev):

   -74.3944 -74.3923 -40.5890 -40.5840 -40.5536 -40.5444 -40.4678 -40.4479
     8.4773   9.6460   9.7427  10.0349  10.6806  10.9639  11.4402  11.7144
    12.2441  12.4670  13.0786  15.0372

          k = 0.2000 0.4619 0.2312 (  1438 PWs)   bands (ev):

   -74.3937 -74.3930 -40.5884 -40.5865 -40.5516 -40.5480 -40.4600 -40.4524
     8.8798   9.3684   9.9291  10.1453  10.4089  10.5892  11.6470  12.0279
    12.1271  12.3423  13.2842  13.8879

          k = 0.2000 0.5774 0.0000 (  1448 PWs)   bands (ev):

   -74.3936 -74.3919 -40.5945 -40.5849 -40.5599 -40.5470 -40.4661 -40.4510
     9.0430   9.4800   9.6842  10.0894  10.8795  11.1654  11.3189  11.8543
    11.9400  12.6993  13.7601  14.4141

          k = 0.2000 0.5774 0.1156 (  1433 PWs)   bands (ev):

   -74.3933 -74.3919 -40.5941 -40.5862 -40.5587 -40.5483 -40.4629 -40.4510
     9.1321   9.5169   9.7301  10.1519  10.6840  10.9897  11.4575  11.9213
    12.0678  12.4661  13.8929  14.4119

          k = 0.2000 0.5774 0.2312 (  1443 PWs)   bands (ev):

   -74.3930 -74.3925 -40.5929 -40.5900 -40.5563 -40.5523 -40.4577 -40.4529
     9.3288   9.4872   9.9475  10.2488  10.4246  10.6721  11.6897  12.0215
    12.0878  12.1940  14.1505  14.3574

          k = 0.3000 0.5196 0.0000 (  1432 PWs)   bands (ev):

   -74.3927 -74.3918 -40.5861 -40.5788 -40.5682 -40.5587 -40.4627 -40.4531
     9.2068   9.5832   9.6795  10.1993  11.0828  11.1336  11.2040  11.5491
    11.8812  12.6413  14.0138  15.6654

          k = 0.3000 0.5196 0.1156 (  1446 PWs)   bands (ev):

   -74.3928 -74.3921 -40.5855 -40.5802 -40.5688 -40.5605 -40.4606 -40.4530
     9.3256   9.6733   9.7407  10.1612  10.8314  10.8663  11.2565  11.7791
    12.0320  12.3993  14.1791  15.6469

          k = 0.3000 0.5196 0.2312 (  1446 PWs)   bands (ev):

   -74.3925 -74.3924 -40.5838 -40.5824 -40.5679 -40.5641 -40.4564 -40.4533
     9.6198   9.8144   9.9368  10.1452  10.3403  10.4616  11.5179  11.9349
    12.0517  12.1498  14.5921  15.2242

     the Fermi energy is    10.8206 ev

!    total energy              =    -658.40842618 Ry
     Harris-Foulkes estimate   =    -658.40842618 Ry
     estimated scf accuracy    <          2.4E-09 Ry

     total all-electron energy =     -5091.001497 Ry

     The total energy is the sum of the following terms:

     one-electron contribution =    -298.28690224 Ry
     hartree contribution      =     161.27659259 Ry
     xc contribution           =     -69.40724179 Ry
     ewald contribution        =    -299.71235084 Ry
     one-center paw contrib.   =    -152.27788063 Ry
     smearing contrib. (-TS)   =      -0.00064328 Ry

     total magnetization       =     5.77 Bohr mag/cell
     absolute magnetization    =     6.11 Bohr mag/cell

     convergence has been achieved in  21 iterations

     Forces acting on atoms (Ry/au):


     negative rho (up, down):  0.000E+00 9.773E-04
     atom    1 type  1   force =    -0.00000000   -0.00000000    0.00000000
     atom    2 type  1   force =     0.00000000    0.00000000    0.00000000

     Total force =     0.000000     Total SCF correction =     0.000000


     entering subroutine stress ...


     negative rho (up, down):  0.000E+00 9.773E-04
          total   stress  (Ry/bohr**3)                   (kbar)     P= -294.44
  -0.00212147   0.00000000   0.00000000       -312.08      0.00      0.00
   0.00000000  -0.00212147   0.00000000          0.00   -312.08      0.00
   0.00000000   0.00000000  -0.00176176          0.00      0.00   -259.16


     Writing output data file Fe_hcp.save

     init_run     :      5.78s CPU      6.20s WALL (       1 calls)
     electrons    :    213.27s CPU    215.40s WALL (       1 calls)
     forces       :      0.94s CPU      0.87s WALL (       1 calls)
     stress       :      2.48s CPU      2.57s WALL (       1 calls)

     Called by init_run:
     wfcinit      :      3.93s CPU      4.09s WALL (       1 calls)
     potinit      :      1.19s CPU      1.36s WALL (       1 calls)

     Called by electrons:
     c_bands      :    161.85s CPU    161.73s WALL (      21 calls)
     sum_band     :     26.73s CPU     27.03s WALL (      21 calls)
     v_of_rho     :      1.34s CPU      1.43s WALL (      22 calls)
     newd         :      1.80s CPU      2.01s WALL (      22 calls)
     mix_rho      :      0.23s CPU      0.32s WALL (      21 calls)

     Called by c_bands:
     init_us_2    :      2.27s CPU      2.46s WALL (    3780 calls)
     cegterg      :    155.38s CPU    154.60s WALL (    1764 calls)

     Called by *egterg:
     h_psi        :    123.32s CPU    129.47s WALL (    6257 calls)
     s_psi        :      5.76s CPU      3.82s WALL (    6257 calls)
     g_psi        :      0.74s CPU      0.79s WALL (    4409 calls)
     cdiaghg      :      6.41s CPU      6.93s WALL (    6173 calls)

     Called by h_psi:
     add_vuspsi   :      6.37s CPU      4.12s WALL (    6257 calls)

     General routines
     calbec       :      8.84s CPU      5.46s WALL (    8189 calls)
     fft          :      0.77s CPU      0.81s WALL (     716 calls)
     ffts         :      0.07s CPU      0.07s WALL (      86 calls)
     fftw         :    118.64s CPU    129.29s WALL (  213970 calls)
     interpolate  :      0.18s CPU      0.20s WALL (      86 calls)
     davcio       :      0.00s CPU      0.05s WALL (      84 calls)


     PAW routines
     PAW_pot      :     22.44s CPU     24.14s WALL (      22 calls)
     PAW_symme    :      0.03s CPU      0.03s WALL (      43 calls)

     PWSCF        :  3m42.95s CPU     3m45.73s WALL


   This run was terminated on:  22:38: 8  11May2015            

=------------------------------------------------------------------------------=
   JOB DONE.
=------------------------------------------------------------------------------=
