
     Program PWSCF v.5.1.2 starts on 11May2015 at 21:11: 5 

     This program is part of the open-source Quantum ESPRESSO suite
     for quantum simulation of materials; please cite
         "P. Giannozzi et al., J. Phys.:Condens. Matter 21 395502 (2009);
          URL http://www.quantum-espresso.org", 
     in publications or presentations arising from this work. More details at
     http://www.quantum-espresso.org/quote

     Serial version
     Reading input from Fe_HCP_5.42_172_9_5.pw.in

     Current dimensions of program PWSCF are:
     Max number of different atomic species (ntypx) = 10
     Max number of k-points (npk) =  40000
     Max angular momentum in pseudopotentials (lmaxx) =  3
               file Fe.pbe-spn-kjpaw_psl.0.2.1.UPF: wavefunction(s)  3D renormalized

     G-vector sticks info
     --------------------
     sticks:   dense  smooth     PW     G-vecs:    dense   smooth      PW
     Sum         511     409    121                15845    11309    1979

     Generating pointlists ...
     new r_m :   0.4125 (alat units)  2.2358 (a.u.) for type    1


     bravais-lattice index     =            4
     lattice parameter (alat)  =       5.4200  a.u.
     unit-cell volume          =     237.1685 (a.u.)^3
     number of atoms/cell      =            2
     number of atomic types    =            1
     number of electrons       =        32.00
     number of Kohn-Sham states=           20
     kinetic-energy cutoff     =      50.0000  Ry
     charge density cutoff     =     250.0000  Ry
     convergence threshold     =      1.0E-08
     mixing beta               =       0.7000
     number of iterations used =            8  plain     mixing
     Exchange-correlation      =  SLA  PW   PBX  PBC ( 1  4  3  4 0 0)

     celldm(1)=   5.420000  celldm(2)=   0.000000  celldm(3)=   1.720000
     celldm(4)=   0.000000  celldm(5)=   0.000000  celldm(6)=   0.000000

     crystal axes: (cart. coord. in units of alat)
               a(1) = (   1.000000   0.000000   0.000000 )  
               a(2) = (  -0.500000   0.866025   0.000000 )  
               a(3) = (   0.000000   0.000000   1.720000 )  

     reciprocal axes: (cart. coord. in units 2 pi/alat)
               b(1) = (  1.000000  0.577350 -0.000000 )  
               b(2) = (  0.000000  1.154701  0.000000 )  
               b(3) = (  0.000000 -0.000000  0.581395 )  


     PseudoPot. # 1 for Fe read from file:
     ./Fe.pbe-spn-kjpaw_psl.0.2.1.UPF
     MD5 check sum: a0a08122d52b112de96d1da1d7dd020f
     Pseudo is Projector augmented-wave + core cor, Zval = 16.0
     Generated using "atomic" code by A. Dal Corso  v.5.0.2 svn rev. 9415
     Shape of augmentation charge: PSQ
     Using radial grid of 1191 points,  6 beta functions with: 
                l(1) =   0
                l(2) =   0
                l(3) =   1
                l(4) =   1
                l(5) =   2
                l(6) =   2
     Q(r) pseudized with 0 coefficients 


     atomic species   valence    mass     pseudopotential
        Fe            16.00    55.85000     Fe( 1.00)

     Starting magnetic structure 
     atomic species   magnetization
        Fe           0.700

     24 Sym. Ops., with inversion, found (12 have fractional translation)



   Cartesian axes

     site n.     atom                  positions (alat units)
         1           Fe  tau(   1) = (  -0.0000000   0.5773503   0.4300000  )
         2           Fe  tau(   2) = (   0.5000000   0.2886751   1.2900000  )

     number of k points=    72  Marzari-Vanderbilt smearing, width (Ry)=  0.0250
                       cart. coord. in units 2pi/alat
        k(    1) = (   0.0000000   0.0000000   0.0000000), wk =   0.0024691
        k(    2) = (   0.0000000   0.0000000   0.1162791), wk =   0.0049383
        k(    3) = (   0.0000000   0.0000000   0.2325581), wk =   0.0049383
        k(    4) = (   0.0000000   0.1283001   0.0000000), wk =   0.0148148
        k(    5) = (   0.0000000   0.1283001   0.1162791), wk =   0.0296296
        k(    6) = (   0.0000000   0.1283001   0.2325581), wk =   0.0296296
        k(    7) = (   0.0000000   0.2566001   0.0000000), wk =   0.0148148
        k(    8) = (   0.0000000   0.2566001   0.1162791), wk =   0.0296296
        k(    9) = (   0.0000000   0.2566001   0.2325581), wk =   0.0296296
        k(   10) = (   0.0000000   0.3849002   0.0000000), wk =   0.0148148
        k(   11) = (   0.0000000   0.3849002   0.1162791), wk =   0.0296296
        k(   12) = (   0.0000000   0.3849002   0.2325581), wk =   0.0296296
        k(   13) = (   0.0000000   0.5132002   0.0000000), wk =   0.0148148
        k(   14) = (   0.0000000   0.5132002   0.1162791), wk =   0.0296296
        k(   15) = (   0.0000000   0.5132002   0.2325581), wk =   0.0296296
        k(   16) = (   0.1111111   0.1924501   0.0000000), wk =   0.0148148
        k(   17) = (   0.1111111   0.1924501   0.1162791), wk =   0.0296296
        k(   18) = (   0.1111111   0.1924501   0.2325581), wk =   0.0296296
        k(   19) = (   0.1111111   0.3207501   0.0000000), wk =   0.0296296
        k(   20) = (   0.1111111   0.3207501   0.1162791), wk =   0.0592593
        k(   21) = (   0.1111111   0.3207501   0.2325581), wk =   0.0592593
        k(   22) = (   0.1111111   0.4490502   0.0000000), wk =   0.0296296
        k(   23) = (   0.1111111   0.4490502   0.1162791), wk =   0.0592593
        k(   24) = (   0.1111111   0.4490502   0.2325581), wk =   0.0592593
        k(   25) = (   0.1111111   0.5773503   0.0000000), wk =   0.0148148
        k(   26) = (   0.1111111   0.5773503   0.1162791), wk =   0.0296296
        k(   27) = (   0.1111111   0.5773503   0.2325581), wk =   0.0296296
        k(   28) = (   0.2222222   0.3849002   0.0000000), wk =   0.0148148
        k(   29) = (   0.2222222   0.3849002   0.1162791), wk =   0.0296296
        k(   30) = (   0.2222222   0.3849002   0.2325581), wk =   0.0296296
        k(   31) = (   0.2222222   0.5132002   0.0000000), wk =   0.0296296
        k(   32) = (   0.2222222   0.5132002   0.1162791), wk =   0.0592593
        k(   33) = (   0.2222222   0.5132002   0.2325581), wk =   0.0592593
        k(   34) = (   0.3333333   0.5773503   0.0000000), wk =   0.0049383
        k(   35) = (   0.3333333   0.5773503   0.1162791), wk =   0.0098765
        k(   36) = (   0.3333333   0.5773503   0.2325581), wk =   0.0098765
        k(   37) = (   0.0000000   0.0000000   0.0000000), wk =   0.0024691
        k(   38) = (   0.0000000   0.0000000   0.1162791), wk =   0.0049383
        k(   39) = (   0.0000000   0.0000000   0.2325581), wk =   0.0049383
        k(   40) = (   0.0000000   0.1283001   0.0000000), wk =   0.0148148
        k(   41) = (   0.0000000   0.1283001   0.1162791), wk =   0.0296296
        k(   42) = (   0.0000000   0.1283001   0.2325581), wk =   0.0296296
        k(   43) = (   0.0000000   0.2566001   0.0000000), wk =   0.0148148
        k(   44) = (   0.0000000   0.2566001   0.1162791), wk =   0.0296296
        k(   45) = (   0.0000000   0.2566001   0.2325581), wk =   0.0296296
        k(   46) = (   0.0000000   0.3849002   0.0000000), wk =   0.0148148
        k(   47) = (   0.0000000   0.3849002   0.1162791), wk =   0.0296296
        k(   48) = (   0.0000000   0.3849002   0.2325581), wk =   0.0296296
        k(   49) = (   0.0000000   0.5132002   0.0000000), wk =   0.0148148
        k(   50) = (   0.0000000   0.5132002   0.1162791), wk =   0.0296296
        k(   51) = (   0.0000000   0.5132002   0.2325581), wk =   0.0296296
        k(   52) = (   0.1111111   0.1924501   0.0000000), wk =   0.0148148
        k(   53) = (   0.1111111   0.1924501   0.1162791), wk =   0.0296296
        k(   54) = (   0.1111111   0.1924501   0.2325581), wk =   0.0296296
        k(   55) = (   0.1111111   0.3207501   0.0000000), wk =   0.0296296
        k(   56) = (   0.1111111   0.3207501   0.1162791), wk =   0.0592593
        k(   57) = (   0.1111111   0.3207501   0.2325581), wk =   0.0592593
        k(   58) = (   0.1111111   0.4490502   0.0000000), wk =   0.0296296
        k(   59) = (   0.1111111   0.4490502   0.1162791), wk =   0.0592593
        k(   60) = (   0.1111111   0.4490502   0.2325581), wk =   0.0592593
        k(   61) = (   0.1111111   0.5773503   0.0000000), wk =   0.0148148
        k(   62) = (   0.1111111   0.5773503   0.1162791), wk =   0.0296296
        k(   63) = (   0.1111111   0.5773503   0.2325581), wk =   0.0296296
        k(   64) = (   0.2222222   0.3849002   0.0000000), wk =   0.0148148
        k(   65) = (   0.2222222   0.3849002   0.1162791), wk =   0.0296296
        k(   66) = (   0.2222222   0.3849002   0.2325581), wk =   0.0296296
        k(   67) = (   0.2222222   0.5132002   0.0000000), wk =   0.0296296
        k(   68) = (   0.2222222   0.5132002   0.1162791), wk =   0.0592593
        k(   69) = (   0.2222222   0.5132002   0.2325581), wk =   0.0592593
        k(   70) = (   0.3333333   0.5773503   0.0000000), wk =   0.0049383
        k(   71) = (   0.3333333   0.5773503   0.1162791), wk =   0.0098765
        k(   72) = (   0.3333333   0.5773503   0.2325581), wk =   0.0098765

     Dense  grid:    15845 G-vectors     FFT dimensions: (  27,  27,  48)

     Smooth grid:    11309 G-vectors     FFT dimensions: (  25,  25,  45)

     Largest allocated arrays     est. size (Mb)     dimensions
        Kohn-Sham Wavefunctions         0.44 Mb     (    1434,   20)
        NL pseudopotentials             0.79 Mb     (    1434,   36)
        Each V/rho on FFT grid          1.07 Mb     (   34992,   2)
        Each G-vector array             0.12 Mb     (   15845)
        G-vector shells                 0.01 Mb     (     829)
     Largest temporary arrays     est. size (Mb)     dimensions
        Auxiliary wavefunctions         1.75 Mb     (    1434,   80)
        Each subspace H/S matrix        0.10 Mb     (      80,   80)
        Each <psi_i|beta_j> matrix      0.01 Mb     (      36,   20)
        Arrays for rho mixing           4.27 Mb     (   34992,    8)

     Check: negative/imaginary core charge=   -0.000319    0.000000

     Initial potential from superposition of free atoms

     starting charge   31.99912, renormalised to   32.00000
     Starting wfc are   26 randomized atomic wfcs

     total cpu time spent up to now is        5.3 secs

     Self-consistent Calculation

     iteration #  1     ecut=    50.00 Ry     beta=0.70
     Davidson diagonalization with overlap
     ethr =  1.00E-02,  avg # of iterations =  2.0

     negative rho (up, down):  0.000E+00 1.076E-03

     Magnetic moment per site:
     atom:    1    charge:   14.6150    magn:    5.9444    constr:    0.0000
     atom:    2    charge:   14.6150    magn:    5.9444    constr:    0.0000

     total cpu time spent up to now is       12.9 secs

     total energy              =    -657.96677083 Ry
     Harris-Foulkes estimate   =    -656.24718113 Ry
     estimated scf accuracy    <       2.84003927 Ry

     total magnetization       =     8.00 Bohr mag/cell
     absolute magnetization    =     8.26 Bohr mag/cell

     iteration #  2     ecut=    50.00 Ry     beta=0.70
     Davidson diagonalization with overlap
     ethr =  8.88E-03,  avg # of iterations =  1.6

     negative rho (up, down):  0.000E+00 1.060E-03

     Magnetic moment per site:
     atom:    1    charge:   14.8360    magn:    4.0209    constr:    0.0000
     atom:    2    charge:   14.8360    magn:    4.0209    constr:    0.0000

     total cpu time spent up to now is       19.9 secs

     total energy              =    -658.14633977 Ry
     Harris-Foulkes estimate   =    -658.17889727 Ry
     estimated scf accuracy    <       0.81672039 Ry

     total magnetization       =     6.62 Bohr mag/cell
     absolute magnetization    =     6.89 Bohr mag/cell

     iteration #  3     ecut=    50.00 Ry     beta=0.70
     Davidson diagonalization with overlap
     ethr =  2.55E-03,  avg # of iterations =  3.1

     negative rho (up, down):  0.000E+00 1.240E-03

     Magnetic moment per site:
     atom:    1    charge:   14.7221    magn:    3.0617    constr:    0.0000
     atom:    2    charge:   14.7221    magn:    3.0617    constr:    0.0000

     total cpu time spent up to now is       28.1 secs

     total energy              =    -658.17741205 Ry
     Harris-Foulkes estimate   =    -658.64485975 Ry
     estimated scf accuracy    <       1.30467808 Ry

     total magnetization       =     6.66 Bohr mag/cell
     absolute magnetization    =     6.93 Bohr mag/cell

     iteration #  4     ecut=    50.00 Ry     beta=0.70
     Davidson diagonalization with overlap
     ethr =  2.55E-03,  avg # of iterations =  2.7

     negative rho (up, down):  0.000E+00 1.055E-03

     Magnetic moment per site:
     atom:    1    charge:   14.7748    magn:    3.0682    constr:    0.0000
     atom:    2    charge:   14.7748    magn:    3.0682    constr:    0.0000

     total cpu time spent up to now is       36.1 secs

     total energy              =    -658.40558673 Ry
     Harris-Foulkes estimate   =    -658.40583409 Ry
     estimated scf accuracy    <       0.00639170 Ry

     total magnetization       =     5.99 Bohr mag/cell
     absolute magnetization    =     6.32 Bohr mag/cell

     iteration #  5     ecut=    50.00 Ry     beta=0.70
     Davidson diagonalization with overlap
     ethr =  2.00E-05,  avg # of iterations =  3.3

     negative rho (up, down):  0.000E+00 1.048E-03

     Magnetic moment per site:
     atom:    1    charge:   14.7690    magn:    3.0678    constr:    0.0000
     atom:    2    charge:   14.7690    magn:    3.0678    constr:    0.0000

     total cpu time spent up to now is       46.3 secs

     total energy              =    -658.41222181 Ry
     Harris-Foulkes estimate   =    -658.41133660 Ry
     estimated scf accuracy    <       0.00074775 Ry

     total magnetization       =     6.02 Bohr mag/cell
     absolute magnetization    =     6.32 Bohr mag/cell

     iteration #  6     ecut=    50.00 Ry     beta=0.70
     Davidson diagonalization with overlap
     ethr =  2.34E-06,  avg # of iterations =  2.2

     negative rho (up, down):  0.000E+00 9.992E-04

     Magnetic moment per site:
     atom:    1    charge:   14.7690    magn:    3.0562    constr:    0.0000
     atom:    2    charge:   14.7690    magn:    3.0562    constr:    0.0000

     total cpu time spent up to now is       53.3 secs

     total energy              =    -658.41116169 Ry
     Harris-Foulkes estimate   =    -658.41246155 Ry
     estimated scf accuracy    <       0.00052645 Ry

     total magnetization       =     6.01 Bohr mag/cell
     absolute magnetization    =     6.31 Bohr mag/cell

     iteration #  7     ecut=    50.00 Ry     beta=0.70
     Davidson diagonalization with overlap
     ethr =  1.65E-06,  avg # of iterations =  3.2

     negative rho (up, down):  0.000E+00 1.021E-03

     Magnetic moment per site:
     atom:    1    charge:   14.7691    magn:    3.0633    constr:    0.0000
     atom:    2    charge:   14.7691    magn:    3.0633    constr:    0.0000

     total cpu time spent up to now is       62.7 secs

     total energy              =    -658.41342463 Ry
     Harris-Foulkes estimate   =    -658.41210256 Ry
     estimated scf accuracy    <       0.00027583 Ry

     total magnetization       =     6.00 Bohr mag/cell
     absolute magnetization    =     6.27 Bohr mag/cell

     iteration #  8     ecut=    50.00 Ry     beta=0.70
     Davidson diagonalization with overlap
     ethr =  8.62E-07,  avg # of iterations =  2.3

     negative rho (up, down):  0.000E+00 1.020E-03

     Magnetic moment per site:
     atom:    1    charge:   14.7693    magn:    3.0629    constr:    0.0000
     atom:    2    charge:   14.7693    magn:    3.0629    constr:    0.0000

     total cpu time spent up to now is       71.4 secs

     total energy              =    -658.41349711 Ry
     Harris-Foulkes estimate   =    -658.41353782 Ry
     estimated scf accuracy    <       0.00025500 Ry

     total magnetization       =     6.00 Bohr mag/cell
     absolute magnetization    =     6.28 Bohr mag/cell

     iteration #  9     ecut=    50.00 Ry     beta=0.70
     Davidson diagonalization with overlap
     ethr =  7.97E-07,  avg # of iterations =  1.0

     negative rho (up, down):  0.000E+00 1.021E-03

     Magnetic moment per site:
     atom:    1    charge:   14.7689    magn:    3.0654    constr:    0.0000
     atom:    2    charge:   14.7689    magn:    3.0654    constr:    0.0000

     total cpu time spent up to now is       78.2 secs

     total energy              =    -658.41331219 Ry
     Harris-Foulkes estimate   =    -658.41350340 Ry
     estimated scf accuracy    <       0.00028762 Ry

     total magnetization       =     6.00 Bohr mag/cell
     absolute magnetization    =     6.27 Bohr mag/cell

     iteration # 10     ecut=    50.00 Ry     beta=0.70
     Davidson diagonalization with overlap
     ethr =  7.97E-07,  avg # of iterations =  1.0

     negative rho (up, down):  0.000E+00 9.781E-04

     Magnetic moment per site:
     atom:    1    charge:   14.7757    magn:    3.0218    constr:    0.0000
     atom:    2    charge:   14.7757    magn:    3.0218    constr:    0.0000

     total cpu time spent up to now is       84.9 secs

     total energy              =    -658.40831456 Ry
     Harris-Foulkes estimate   =    -658.41331573 Ry
     estimated scf accuracy    <       0.00045590 Ry

     total magnetization       =     6.00 Bohr mag/cell
     absolute magnetization    =     6.27 Bohr mag/cell

     iteration # 11     ecut=    50.00 Ry     beta=0.70
     Davidson diagonalization with overlap
     ethr =  7.97E-07,  avg # of iterations =  3.8

     negative rho (up, down):  0.000E+00 9.802E-04

     Magnetic moment per site:
     atom:    1    charge:   14.7748    magn:    3.0266    constr:    0.0000
     atom:    2    charge:   14.7748    magn:    3.0266    constr:    0.0000

     total cpu time spent up to now is       95.4 secs

     total energy              =    -658.41194940 Ry
     Harris-Foulkes estimate   =    -658.40969652 Ry
     estimated scf accuracy    <       0.00234874 Ry

     total magnetization       =     5.98 Bohr mag/cell
     absolute magnetization    =     6.22 Bohr mag/cell

     iteration # 12     ecut=    50.00 Ry     beta=0.70
     Davidson diagonalization with overlap
     ethr =  7.97E-07,  avg # of iterations =  1.5

     negative rho (up, down):  0.000E+00 9.844E-04

     Magnetic moment per site:
     atom:    1    charge:   14.7741    magn:    3.0324    constr:    0.0000
     atom:    2    charge:   14.7741    magn:    3.0324    constr:    0.0000

     total cpu time spent up to now is      102.2 secs

     total energy              =    -658.41297074 Ry
     Harris-Foulkes estimate   =    -658.41196499 Ry
     estimated scf accuracy    <       0.00137645 Ry

     total magnetization       =     5.98 Bohr mag/cell
     absolute magnetization    =     6.22 Bohr mag/cell

     iteration # 13     ecut=    50.00 Ry     beta=0.70
     Davidson diagonalization with overlap
     ethr =  7.97E-07,  avg # of iterations =  1.3

     negative rho (up, down):  0.000E+00 1.005E-03

     Magnetic moment per site:
     atom:    1    charge:   14.7697    magn:    3.0523    constr:    0.0000
     atom:    2    charge:   14.7697    magn:    3.0523    constr:    0.0000

     total cpu time spent up to now is      109.4 secs

     total energy              =    -658.41319011 Ry
     Harris-Foulkes estimate   =    -658.41298309 Ry
     estimated scf accuracy    <       0.00076280 Ry

     total magnetization       =     5.98 Bohr mag/cell
     absolute magnetization    =     6.23 Bohr mag/cell

     iteration # 14     ecut=    50.00 Ry     beta=0.70
     Davidson diagonalization with overlap
     ethr =  7.97E-07,  avg # of iterations =  3.1

     negative rho (up, down):  0.000E+00 9.981E-04

     Magnetic moment per site:
     atom:    1    charge:   14.7710    magn:    3.0433    constr:    0.0000
     atom:    2    charge:   14.7710    magn:    3.0433    constr:    0.0000

     total cpu time spent up to now is      118.4 secs

     total energy              =    -658.41378931 Ry
     Harris-Foulkes estimate   =    -658.41356303 Ry
     estimated scf accuracy    <       0.00010914 Ry

     total magnetization       =     5.99 Bohr mag/cell
     absolute magnetization    =     6.25 Bohr mag/cell

     iteration # 15     ecut=    50.00 Ry     beta=0.70
     Davidson diagonalization with overlap
     ethr =  3.41E-07,  avg # of iterations =  2.3

     negative rho (up, down):  0.000E+00 9.988E-04

     Magnetic moment per site:
     atom:    1    charge:   14.7709    magn:    3.0440    constr:    0.0000
     atom:    2    charge:   14.7709    magn:    3.0440    constr:    0.0000

     total cpu time spent up to now is      126.2 secs

     total energy              =    -658.41383100 Ry
     Harris-Foulkes estimate   =    -658.41382477 Ry
     estimated scf accuracy    <       0.00001655 Ry

     total magnetization       =     5.98 Bohr mag/cell
     absolute magnetization    =     6.24 Bohr mag/cell

     iteration # 16     ecut=    50.00 Ry     beta=0.70
     Davidson diagonalization with overlap
     ethr =  5.17E-08,  avg # of iterations =  1.5

     negative rho (up, down):  0.000E+00 9.992E-04

     Magnetic moment per site:
     atom:    1    charge:   14.7708    magn:    3.0439    constr:    0.0000
     atom:    2    charge:   14.7708    magn:    3.0439    constr:    0.0000

     total cpu time spent up to now is      133.0 secs

     total energy              =    -658.41382983 Ry
     Harris-Foulkes estimate   =    -658.41383163 Ry
     estimated scf accuracy    <       0.00001106 Ry

     total magnetization       =     5.99 Bohr mag/cell
     absolute magnetization    =     6.25 Bohr mag/cell

     iteration # 17     ecut=    50.00 Ry     beta=0.70
     Davidson diagonalization with overlap
     ethr =  3.46E-08,  avg # of iterations =  1.0

     negative rho (up, down):  0.000E+00 1.000E-03

     Magnetic moment per site:
     atom:    1    charge:   14.7707    magn:    3.0453    constr:    0.0000
     atom:    2    charge:   14.7707    magn:    3.0453    constr:    0.0000

     total cpu time spent up to now is      139.6 secs

     total energy              =    -658.41383271 Ry
     Harris-Foulkes estimate   =    -658.41382995 Ry
     estimated scf accuracy    <       0.00001197 Ry

     total magnetization       =     5.99 Bohr mag/cell
     absolute magnetization    =     6.25 Bohr mag/cell

     iteration # 18     ecut=    50.00 Ry     beta=0.70
     Davidson diagonalization with overlap
     ethr =  3.46E-08,  avg # of iterations =  1.0

     negative rho (up, down):  0.000E+00 1.001E-03

     Magnetic moment per site:
     atom:    1    charge:   14.7707    magn:    3.0461    constr:    0.0000
     atom:    2    charge:   14.7707    magn:    3.0461    constr:    0.0000

     total cpu time spent up to now is      146.2 secs

     total energy              =    -658.41383886 Ry
     Harris-Foulkes estimate   =    -658.41383289 Ry
     estimated scf accuracy    <       0.00001140 Ry

     total magnetization       =     5.99 Bohr mag/cell
     absolute magnetization    =     6.25 Bohr mag/cell

     iteration # 19     ecut=    50.00 Ry     beta=0.70
     Davidson diagonalization with overlap
     ethr =  3.46E-08,  avg # of iterations =  1.1

     negative rho (up, down):  0.000E+00 1.001E-03

     Magnetic moment per site:
     atom:    1    charge:   14.7707    magn:    3.0467    constr:    0.0000
     atom:    2    charge:   14.7707    magn:    3.0467    constr:    0.0000

     total cpu time spent up to now is      152.9 secs

     total energy              =    -658.41384148 Ry
     Harris-Foulkes estimate   =    -658.41383915 Ry
     estimated scf accuracy    <       0.00000635 Ry

     total magnetization       =     5.99 Bohr mag/cell
     absolute magnetization    =     6.25 Bohr mag/cell

     iteration # 20     ecut=    50.00 Ry     beta=0.70
     Davidson diagonalization with overlap
     ethr =  1.98E-08,  avg # of iterations =  1.2

     negative rho (up, down):  0.000E+00 1.003E-03

     Magnetic moment per site:
     atom:    1    charge:   14.7706    magn:    3.0488    constr:    0.0000
     atom:    2    charge:   14.7706    magn:    3.0488    constr:    0.0000

     total cpu time spent up to now is      159.4 secs

     total energy              =    -658.41384443 Ry
     Harris-Foulkes estimate   =    -658.41384163 Ry
     estimated scf accuracy    <       0.00000397 Ry

     total magnetization       =     5.99 Bohr mag/cell
     absolute magnetization    =     6.25 Bohr mag/cell

     iteration # 21     ecut=    50.00 Ry     beta=0.70
     Davidson diagonalization with overlap
     ethr =  1.24E-08,  avg # of iterations =  2.3

     negative rho (up, down):  0.000E+00 1.003E-03

     Magnetic moment per site:
     atom:    1    charge:   14.7706    magn:    3.0489    constr:    0.0000
     atom:    2    charge:   14.7706    magn:    3.0489    constr:    0.0000

     total cpu time spent up to now is      166.7 secs

     total energy              =    -658.41384591 Ry
     Harris-Foulkes estimate   =    -658.41384556 Ry
     estimated scf accuracy    <       0.00000005 Ry

     total magnetization       =     5.99 Bohr mag/cell
     absolute magnetization    =     6.25 Bohr mag/cell

     iteration # 22     ecut=    50.00 Ry     beta=0.70
     Davidson diagonalization with overlap
     ethr =  1.45E-10,  avg # of iterations =  3.9

     negative rho (up, down):  0.000E+00 1.003E-03

     Magnetic moment per site:
     atom:    1    charge:   14.7706    magn:    3.0489    constr:    0.0000
     atom:    2    charge:   14.7706    magn:    3.0489    constr:    0.0000

     total cpu time spent up to now is      177.2 secs

     total energy              =    -658.41384605 Ry
     Harris-Foulkes estimate   =    -658.41384599 Ry
     estimated scf accuracy    <       0.00000005 Ry

     total magnetization       =     5.99 Bohr mag/cell
     absolute magnetization    =     6.25 Bohr mag/cell

     iteration # 23     ecut=    50.00 Ry     beta=0.70
     Davidson diagonalization with overlap
     ethr =  1.45E-10,  avg # of iterations =  1.7

     negative rho (up, down):  0.000E+00 1.003E-03

     Magnetic moment per site:
     atom:    1    charge:   14.7706    magn:    3.0492    constr:    0.0000
     atom:    2    charge:   14.7706    magn:    3.0492    constr:    0.0000

     total cpu time spent up to now is      184.4 secs

     total energy              =    -658.41384603 Ry
     Harris-Foulkes estimate   =    -658.41384606 Ry
     estimated scf accuracy    <       0.00000008 Ry

     total magnetization       =     5.99 Bohr mag/cell
     absolute magnetization    =     6.25 Bohr mag/cell

     iteration # 24     ecut=    50.00 Ry     beta=0.70
     Davidson diagonalization with overlap
     ethr =  1.45E-10,  avg # of iterations =  3.0

     negative rho (up, down):  0.000E+00 1.003E-03

     Magnetic moment per site:
     atom:    1    charge:   14.7706    magn:    3.0492    constr:    0.0000
     atom:    2    charge:   14.7706    magn:    3.0492    constr:    0.0000

     total cpu time spent up to now is      193.5 secs

     End of self-consistent calculation

 ------ SPIN UP ------------


          k = 0.0000 0.0000 0.0000 (  1377 PWs)   bands (ev):

   -77.7104 -77.7033 -43.7778 -43.7778 -43.7687 -43.7687 -43.6623 -43.5938
     4.0383   7.1258   8.4111   8.4111   8.5371   8.5371   8.6041   8.6041
     8.6992   9.0721   9.0721  10.3939

          k = 0.0000 0.0000 0.1163 (  1401 PWs)   bands (ev):

   -77.7102 -77.7041 -43.7774 -43.7774 -43.7704 -43.7704 -43.6558 -43.6014
     4.2992   6.9212   8.3646   8.3646   8.4919   8.4919   8.6610   8.7083
     8.7083   9.0617   9.0617   9.4325

          k = 0.0000 0.0000 0.2326 (  1401 PWs)   bands (ev):

   -77.7083 -77.7060 -43.7750 -43.7750 -43.7724 -43.7724 -43.6396 -43.6190
     5.0460   6.1035   8.3485   8.3485   8.4039   8.4039   8.5930   8.6851
     8.8746   8.8746   9.0029   9.0029

          k = 0.0000 0.1283 0.0000 (  1385 PWs)   bands (ev):

   -77.7095 -77.7025 -43.7864 -43.7805 -43.7784 -43.7710 -43.6593 -43.5945
     4.3591   7.3275   8.3036   8.4365   8.4762   8.5291   8.5459   8.6453
     8.6690   8.8083   9.0886  11.2054

          k = 0.0000 0.1283 0.1163 (  1399 PWs)   bands (ev):

   -77.7091 -77.7033 -43.7861 -43.7798 -43.7794 -43.7723 -43.6531 -43.6014
     4.6144   7.1444   8.2736   8.3167   8.4425   8.5064   8.5872   8.6412
     8.7046   8.8584   9.0746  10.1505

          k = 0.0000 0.1283 0.2326 (  1419 PWs)   bands (ev):

   -77.7076 -77.7054 -43.7846 -43.7819 -43.7780 -43.7751 -43.6375 -43.6181
     5.3418   6.3665   8.2155   8.2566   8.4313   8.4914   8.4955   8.5477
     8.8741   9.0081   9.0227   9.3404

          k = 0.0000 0.2566 0.0000 (  1405 PWs)   bands (ev):

   -77.7069 -77.7009 -43.8090 -43.8008 -43.7872 -43.7758 -43.6517 -43.5979
     5.2670   7.6460   7.8747   8.2110   8.4160   8.4162   8.4509   8.8425
     8.9298   9.0883   9.1134  12.7205

          k = 0.0000 0.2566 0.1163 (  1419 PWs)   bands (ev):

   -77.7065 -77.7017 -43.8087 -43.8020 -43.7866 -43.7773 -43.6466 -43.6032
     5.4926   7.5081   7.8705   8.1720   8.3891   8.4490   8.5239   8.8316
     8.9029   9.1077   9.1128  11.1366

          k = 0.0000 0.2566 0.2326 (  1408 PWs)   bands (ev):

   -77.7048 -77.7031 -43.8066 -43.8037 -43.7839 -43.7803 -43.6327 -43.6160
     6.1203   6.9251   7.9767   8.1044   8.4375   8.5166   8.5460   8.6909
     8.9811   9.0691   9.2761   9.8525

          k = 0.0000 0.3849 0.0000 (  1416 PWs)   bands (ev):

   -77.7034 -77.6992 -43.8337 -43.8254 -43.7946 -43.7815 -43.6415 -43.6022
     6.4712   7.4599   7.5148   8.2760   8.2861   8.3134   8.7844   9.1254
     9.2251   9.2783   9.6100  14.5929

          k = 0.0000 0.3849 0.1163 (  1418 PWs)   bands (ev):

   -77.7031 -77.6996 -43.8335 -43.8266 -43.7934 -43.7826 -43.6376 -43.6057
     6.5653   7.3731   7.6368   8.0058   8.3517   8.6870   8.8537   9.0075
     9.2392   9.3030   9.5476  12.3397

          k = 0.0000 0.3849 0.2326 (  1412 PWs)   bands (ev):

   -77.7019 -77.7005 -43.8319 -43.8291 -43.7902 -43.7862 -43.6269 -43.6150
     6.8079   7.1195   7.8149   7.9212   8.5314   8.7752   8.9796   9.1739
     9.2714   9.3018   9.5588  10.6079

          k = 0.0000 0.5132 0.0000 (  1422 PWs)   bands (ev):

   -77.7010 -77.6983 -43.8504 -43.8415 -43.7992 -43.7850 -43.6326 -43.6075
     7.1163   7.2583   7.3276   8.1657   8.2074   8.8330   9.0360   9.1277
     9.4818   9.5343  10.7522  13.3811

          k = 0.0000 0.5132 0.1163 (  1420 PWs)   bands (ev):

   -77.7007 -77.6984 -43.8500 -43.8426 -43.7978 -43.7865 -43.6296 -43.6095
     6.9530   7.2775   7.5581   7.8879   8.2847   9.0154   9.0247   9.3906
     9.4894   9.5325  10.6895  13.0338

          k = 0.0000 0.5132 0.2326 (  1418 PWs)   bands (ev):

   -77.7000 -77.6991 -43.8481 -43.8454 -43.7945 -43.7900 -43.6225 -43.6151
     6.9368   7.1073   7.7342   7.7725   8.4954   8.7759   9.3646   9.5058
     9.5226   9.7366  10.8961  11.9106

          k = 0.1111 0.1925 0.0000 (  1406 PWs)   bands (ev):

   -77.7078 -77.7015 -43.8010 -43.7955 -43.7844 -43.7765 -43.6541 -43.5965
     4.9771   7.6413   8.0441   8.1354   8.3581   8.3960   8.5851   8.7897
     8.8023   9.0286   9.0922  12.2797

          k = 0.1111 0.1925 0.1163 (  1415 PWs)   bands (ev):

   -77.7074 -77.7021 -43.8004 -43.7958 -43.7836 -43.7774 -43.6489 -43.6027
     5.2157   7.4868   7.9788   8.1348   8.3777   8.4340   8.5403   8.7509
     8.8582   9.0400   9.0975  10.8639

          k = 0.1111 0.1925 0.2326 (  1404 PWs)   bands (ev):

   -77.7056 -77.7036 -43.7987 -43.7969 -43.7820 -43.7797 -43.6340 -43.6164
     5.8901   6.7999   8.0390   8.1266   8.3831   8.4309   8.5428   8.6438
     8.9685   9.0589   9.2049   9.7124

          k = 0.1111 0.3208 0.0000 (  1419 PWs)   bands (ev):

   -77.7047 -77.6997 -43.8222 -43.8165 -43.7934 -43.7833 -43.6451 -43.6009
     6.0822   7.6177   7.7398   8.0971   8.1961   8.4483   8.4683   9.0544
     9.0884   9.2236   9.4838  13.9036

          k = 0.1111 0.3208 0.1163 (  1411 PWs)   bands (ev):

   -77.7041 -77.7001 -43.8219 -43.8168 -43.7924 -43.7844 -43.6405 -43.6045
     6.2549   7.5153   7.7906   8.0595   8.3196   8.4319   8.4847   8.9341
     9.1523   9.2683   9.4724  11.9185

          k = 0.1111 0.3208 0.2326 (  1401 PWs)   bands (ev):

   -77.7027 -77.7012 -43.8203 -43.8184 -43.7902 -43.7871 -43.6287 -43.6151
     6.6926   7.1808   7.9211   8.0389   8.4261   8.4534   8.5600   8.7361
     9.3355   9.4269   9.4558  10.3341

          k = 0.1111 0.4491 0.0000 (  1414 PWs)   bands (ev):

   -77.7015 -77.6983 -43.8418 -43.8338 -43.8014 -43.7889 -43.6348 -43.6060
     7.0874   7.3553   7.5195   8.1164   8.2749   8.3665   8.8028   9.0828
     9.3555   9.5623  10.3168  14.8231

          k = 0.1111 0.4491 0.1163 (  1417 PWs)   bands (ev):

   -77.7013 -77.6986 -43.8414 -43.8352 -43.8003 -43.7902 -43.6318 -43.6084
     7.0147   7.4021   7.6291   7.9307   8.2600   8.7108   8.8363   8.9818
     9.3843   9.6213  10.3087  13.3011

          k = 0.1111 0.4491 0.2326 (  1417 PWs)   bands (ev):

   -77.7005 -77.6994 -43.8401 -43.8378 -43.7974 -43.7936 -43.6235 -43.6150
     7.0442   7.2234   7.8085   7.9038   8.3908   8.6673   8.9586   9.0059
     9.5460   9.7044  10.5428  11.6033

          k = 0.1111 0.5774 0.0000 (  1426 PWs)   bands (ev):

   -77.7004 -77.6980 -43.8500 -43.8410 -43.8044 -43.7914 -43.6296 -43.6099
     7.2697   7.3290   7.4021   8.1429   8.1494   8.7191   8.9210   9.0797
     9.5254   9.6534  11.7356  12.7130

          k = 0.1111 0.5774 0.1163 (  1415 PWs)   bands (ev):

   -77.6999 -77.6981 -43.8494 -43.8420 -43.8035 -43.7926 -43.6270 -43.6108
     7.0743   7.3932   7.6390   7.8763   8.1850   8.9193   8.9937   9.0504
     9.5331   9.7220  11.7920  12.6883

          k = 0.1111 0.5774 0.2326 (  1414 PWs)   bands (ev):

   -77.6993 -77.6987 -43.8478 -43.8451 -43.8001 -43.7961 -43.6210 -43.6149
     7.0542   7.2240   7.7846   7.8313   8.3455   8.6621   9.1861   9.2261
     9.6074   9.7732  12.0787  12.5103

          k = 0.2222 0.3849 0.0000 (  1426 PWs)   bands (ev):

   -77.7020 -77.6986 -43.8321 -43.8311 -43.8042 -43.7958 -43.6360 -43.6057
     7.1476   7.4374   7.8189   7.9264   8.0436   8.3333   8.5853   9.0333
     9.2382   9.6157  10.2703  15.3769

          k = 0.2222 0.3849 0.1163 (  1418 PWs)   bands (ev):

   -77.7014 -77.6988 -43.8320 -43.8316 -43.8038 -43.7966 -43.6324 -43.6077
     7.1625   7.4073   7.8294   7.9994   8.2178   8.2832   8.5750   8.9165
     9.3177   9.6564  10.3059  13.2644

          k = 0.2222 0.3849 0.2326 (  1420 PWs)   bands (ev):

   -77.7007 -77.6997 -43.8322 -43.8321 -43.8021 -43.7991 -43.6242 -43.6149
     7.2239   7.3249   7.9293   8.0541   8.2910   8.3910   8.5803   8.6936
     9.5751   9.7054  10.5603  11.5506

          k = 0.2222 0.5132 0.0000 (  1432 PWs)   bands (ev):

   -77.6998 -77.6982 -43.8415 -43.8341 -43.8151 -43.8045 -43.6272 -43.6115
     7.3577   7.6434   7.7074   8.0294   8.1614   8.1875   8.7518   8.9974
     9.4612   9.7109  11.7808  14.2983

          k = 0.2222 0.5132 0.1163 (  1423 PWs)   bands (ev):

   -77.6996 -77.6982 -43.8408 -43.8347 -43.8144 -43.8058 -43.6247 -43.6123
     7.3220   7.6678   7.7468   7.9311   8.0972   8.4127   8.7634   8.8968
     9.5107   9.7464  11.9201  14.2397

          k = 0.2222 0.5132 0.2326 (  1426 PWs)   bands (ev):

   -77.6991 -77.6986 -43.8391 -43.8369 -43.8123 -43.8089 -43.6202 -43.6153
     7.3397   7.4790   7.8867   8.0215   8.1217   8.3935   8.7891   8.7953
     9.6554   9.7660  12.4089  13.3575

          k = 0.3333 0.5774 0.0000 (  1434 PWs)   bands (ev):

   -77.6986 -77.6986 -43.8354 -43.8267 -43.8267 -43.8177 -43.6191 -43.6191
     7.3877   7.9073   7.9073   7.9682   8.0448   8.0448   8.7062   8.9563
     9.6130   9.6130  13.9077  14.0837

          k = 0.3333 0.5774 0.1163 (  1425 PWs)   bands (ev):

   -77.6984 -77.6984 -43.8336 -43.8269 -43.8269 -43.8188 -43.6182 -43.6182
     7.4643   7.7964   7.7964   7.9566   8.1589   8.1589   8.6856   8.8532
     9.6521   9.6521  14.2167  14.2167

          k = 0.3333 0.5774 0.2326 (  1434 PWs)   bands (ev):

   -77.6985 -77.6985 -43.8294 -43.8280 -43.8280 -43.8236 -43.6171 -43.6171
     7.6618   7.7011   7.7011   7.8676   8.2573   8.2573   8.6506   8.6899
     9.7179   9.7179  14.5497  14.5497

 ------ SPIN DOWN ----------


          k = 0.0000 0.0000 0.0000 (  1377 PWs)   bands (ev):

   -74.2408 -74.2325 -40.3633 -40.3374 -40.3374 -40.3271 -40.3271 -40.2830
     4.3609   8.1929  10.4427  10.5586  11.1568  11.1568  11.3323  11.3323
    12.3534  12.3534  12.9753  12.9753

          k = 0.0000 0.0000 0.1163 (  1401 PWs)   bands (ev):

   -74.2404 -74.2335 -40.3557 -40.3367 -40.3367 -40.3287 -40.3287 -40.2916
     4.6226   7.7032  10.2379  10.3807  11.1520  11.1520  11.2972  11.2972
    12.4361  12.4361  12.9366  12.9366

          k = 0.0000 0.0000 0.2326 (  1401 PWs)   bands (ev):

   -74.2383 -74.2357 -40.3362 -40.3341 -40.3341 -40.3311 -40.3311 -40.3119
     5.3810   6.5236  10.1085  10.2315  11.1655  11.1655  11.2227  11.2227
    12.6253  12.6253  12.8150  12.8150

          k = 0.0000 0.1283 0.0000 (  1385 PWs)   bands (ev):

   -74.2397 -74.2316 -40.3598 -40.3476 -40.3405 -40.3382 -40.3295 -40.2839
     4.6830   8.4374  10.4101  10.4811  11.0648  11.2379  11.2999  11.4638
    12.2197  12.2649  13.0027  13.4494

          k = 0.0000 0.1283 0.1163 (  1399 PWs)   bands (ev):

   -74.2391 -74.2325 -40.3547 -40.3449 -40.3396 -40.3396 -40.3309 -40.2914
     4.9416   7.9713  10.1622  10.4307  11.0357  11.2165  11.2916  11.4276
    12.3225  12.3607  12.9512  13.1288

          k = 0.0000 0.1283 0.2326 (  1419 PWs)   bands (ev):

   -74.2373 -74.2348 -40.3479 -40.3433 -40.3374 -40.3341 -40.3312 -40.3099
     5.6896   6.8185  10.1079  10.2743  11.0371  11.1209  11.2997  11.3536
    12.5687  12.5775  12.7998  12.8419

          k = 0.0000 0.2566 0.0000 (  1405 PWs)   bands (ev):

   -74.2365 -74.2296 -40.3740 -40.3645 -40.3507 -40.3483 -40.3352 -40.2875
     5.6127   9.0293  10.1743  10.4356  10.8640  11.2246  11.6866  11.8127
    11.9350  12.0718  13.0426  14.5684

          k = 0.0000 0.2566 0.1163 (  1419 PWs)   bands (ev):

   -74.2360 -74.2305 -40.3751 -40.3664 -40.3473 -40.3430 -40.3367 -40.2930
     5.8582   8.6631  10.0181  10.4671  10.7972  11.1244  11.6607  11.7709
    12.0964  12.2056  12.9638  13.5401

          k = 0.0000 0.2566 0.2326 (  1408 PWs)   bands (ev):

   -74.2341 -74.2321 -40.3739 -40.3699 -40.3442 -40.3402 -40.3257 -40.3069
     6.5716   7.6273  10.1020  10.3680  10.7522  10.9311  11.6536  11.7012
    12.4556  12.4730  12.7528  12.9036

          k = 0.0000 0.3849 0.0000 (  1416 PWs)   bands (ev):

   -74.2325 -74.2276 -40.4033 -40.3936 -40.3567 -40.3417 -40.3385 -40.2926
     7.0117   9.4502  10.0456  10.2769  10.7067  11.6130  11.6803  11.8816
    12.1768  12.2459  13.0614  15.4921

          k = 0.0000 0.3849 0.1163 (  1418 PWs)   bands (ev):

   -74.2320 -74.2280 -40.4040 -40.3956 -40.3554 -40.3430 -40.3329 -40.2960
     7.2212   9.3003   9.9105  10.4160  10.6140  11.3268  11.9299  11.9829
    12.2020  12.2503  12.9527  14.0516

          k = 0.0000 0.3849 0.2326 (  1412 PWs)   bands (ev):

   -74.2308 -74.2292 -40.4034 -40.3999 -40.3517 -40.3470 -40.3192 -40.3056
     7.8092   8.6229  10.0467  10.3357  10.6850  10.9969  12.0361  12.1389
    12.3944  12.4187  12.6924  13.0087

          k = 0.0000 0.5132 0.0000 (  1422 PWs)   bands (ev):

   -74.2296 -74.2264 -40.4229 -40.4124 -40.3621 -40.3458 -40.3281 -40.2987
     8.4285   9.3700  10.0199  10.0732  10.8067  11.3890  11.7675  12.5145
    12.5188  12.5760  13.0652  14.5381

          k = 0.0000 0.5132 0.1163 (  1420 PWs)   bands (ev):

   -74.2293 -74.2267 -40.4233 -40.4145 -40.3606 -40.3475 -40.3238 -40.3003
     8.5347   9.3372   9.9180  10.2096  10.7874  11.5729  11.8667  12.3918
    12.5204  12.5647  12.9249  14.0938

          k = 0.0000 0.5132 0.2326 (  1418 PWs)   bands (ev):

   -74.2285 -74.2275 -40.4224 -40.4191 -40.3567 -40.3515 -40.3143 -40.3056
     8.8050   9.1243  10.0023  10.1998  11.0212  11.5434  12.1381  12.4559
    12.4804  12.5623  12.6480  13.1936

          k = 0.1111 0.1925 0.0000 (  1406 PWs)   bands (ev):

   -74.2375 -74.2303 -40.3644 -40.3582 -40.3536 -40.3448 -40.3356 -40.2862
     5.3101   8.8650  10.2351  10.4617  11.0043  11.0677  11.5784  11.7285
    11.9653  12.1888  13.0093  14.2352

          k = 0.1111 0.1925 0.1163 (  1415 PWs)   bands (ev):

   -74.2370 -74.2310 -40.3659 -40.3591 -40.3452 -40.3442 -40.3367 -40.2925
     5.5605   8.4599  10.0575  10.4692  10.8828  11.0730  11.5540  11.6816
    12.1454  12.2703  12.9401  13.4350

          k = 0.1111 0.1925 0.2326 (  1404 PWs)   bands (ev):

   -74.2350 -74.2328 -40.3647 -40.3616 -40.3424 -40.3396 -40.3270 -40.3074
     6.2885   7.3757  10.1095  10.3501  10.8139  10.9498  11.5552  11.6078
    12.4937  12.4967  12.7500  12.9011

          k = 0.1111 0.3208 0.0000 (  1419 PWs)   bands (ev):

   -74.2340 -74.2282 -40.3896 -40.3831 -40.3554 -40.3437 -40.3429 -40.2909
     6.4868   9.4331  10.1003  10.2622  10.8254  11.2601  11.6704  11.9842
    12.0179  12.1860  13.0056  15.4143

          k = 0.1111 0.3208 0.1163 (  1411 PWs)   bands (ev):

   -74.2333 -74.2287 -40.3904 -40.3843 -40.3545 -40.3452 -40.3360 -40.2946
     6.7169   9.2007   9.9514  10.3387  10.7585  11.0695  11.8424  11.9243
    12.1604  12.2273  12.9155  13.9326

          k = 0.1111 0.3208 0.2326 (  1401 PWs)   bands (ev):

   -74.2318 -74.2300 -40.3899 -40.3874 -40.3521 -40.3484 -40.3209 -40.3055
     7.3730   8.3235  10.1032  10.4414  10.5347  10.8021  11.9007  12.0229
    12.4178  12.4470  12.7004  13.0235

          k = 0.1111 0.4491 0.0000 (  1414 PWs)   bands (ev):

   -74.2303 -74.2266 -40.4129 -40.4035 -40.3648 -40.3503 -40.3308 -40.2969
     7.9618   9.5648  10.0765  10.0946  10.8236  11.4430  11.7519  11.8042
    12.3602  12.7186  12.9979  15.6739

          k = 0.1111 0.4491 0.1163 (  1417 PWs)   bands (ev):

   -74.2300 -74.2270 -40.4132 -40.4058 -40.3638 -40.3520 -40.3260 -40.2989
     8.1280   9.5355   9.8976  10.2963  10.7135  11.3046  11.8103  11.9618
    12.4386  12.6118  12.9447  14.5928

          k = 0.1111 0.4491 0.2326 (  1417 PWs)   bands (ev):

   -74.2291 -74.2279 -40.4128 -40.4100 -40.3607 -40.3561 -40.3151 -40.3052
     8.5774   9.1429  10.0402  10.3147  10.6917  10.9919  11.9992  12.2828
    12.3523  12.5768  12.9158  13.4273

          k = 0.1111 0.5774 0.0000 (  1426 PWs)   bands (ev):

   -74.2288 -74.2262 -40.4224 -40.4118 -40.3685 -40.3533 -40.3245 -40.3014
     8.9042   9.4105   9.9529  10.0909  10.8979  11.3503  11.6519  12.3230
    12.3691  12.9934  13.3220  14.2374

          k = 0.1111 0.5774 0.1163 (  1415 PWs)   bands (ev):

   -74.2284 -74.2264 -40.4226 -40.4138 -40.3675 -40.3548 -40.3204 -40.3018
     8.9713   9.4138   9.9365  10.2005  10.8088  11.4073  11.7832  12.3573
    12.3659  12.7571  13.3304  14.1285

          k = 0.1111 0.5774 0.2326 (  1414 PWs)   bands (ev):

   -74.2278 -74.2270 -40.4218 -40.4186 -40.3639 -40.3591 -40.3122 -40.3053
     9.1335   9.3179  10.0473  10.2612  10.8817  11.2881  12.0736  12.3304
    12.3725  12.4602  13.4043  13.7825

          k = 0.2222 0.3849 0.0000 (  1426 PWs)   bands (ev):

   -74.2307 -74.2268 -40.4016 -40.4001 -40.3681 -40.3583 -40.3320 -40.2965
     7.7823   9.7711   9.9903  10.1351  10.9504  11.3770  11.4307  11.7555
    12.2849  12.7865  12.9276  16.2630

          k = 0.2222 0.3849 0.1163 (  1418 PWs)   bands (ev):

   -74.2302 -74.2271 -40.4020 -40.4016 -40.3679 -40.3596 -40.3266 -40.2981
     7.9737   9.8283   9.9034  10.0649  10.9274  10.9862  11.6594  11.8537
    12.4390  12.5903  12.9768  14.7947

          k = 0.2222 0.3849 0.2326 (  1420 PWs)   bands (ev):

   -74.2293 -74.2281 -40.4035 -40.4032 -40.3665 -40.3630 -40.3153 -40.3048
     8.4988   9.2161  10.1367  10.2577  10.5946  10.6585  11.8400  12.2126
    12.3563  12.5726  13.0525  13.5850

          k = 0.2222 0.5132 0.0000 (  1432 PWs)   bands (ev):

   -74.2282 -74.2263 -40.4123 -40.4036 -40.3810 -40.3685 -40.3216 -40.3034
     9.0233   9.7195   9.8587  10.2415  11.1017  11.3258  11.4821  11.7861
    12.2176  12.8766  13.6493  15.4653

          k = 0.2222 0.5132 0.1163 (  1423 PWs)   bands (ev):

   -74.2279 -74.2263 -40.4121 -40.4052 -40.3807 -40.3704 -40.3177 -40.3033
     9.1422   9.7939   9.8729  10.2682  10.8990  11.1169  11.5520  11.9611
    12.3377  12.6308  13.7796  15.3467

          k = 0.2222 0.5132 0.2326 (  1426 PWs)   bands (ev):

   -74.2275 -74.2269 -40.4114 -40.4089 -40.3788 -40.3746 -40.3106 -40.3052
     9.4325   9.7140  10.0986  10.3719  10.5556  10.7388  11.7828  12.1665
    12.2657  12.4272  14.0947  14.7034

          k = 0.3333 0.5774 0.0000 (  1434 PWs)   bands (ev):

   -74.2266 -74.2266 -40.4048 -40.3948 -40.3948 -40.3841 -40.3121 -40.3121
     9.6158   9.6158   9.8432  10.3782  11.2922  11.2922  11.3457  11.8800
    11.8800  12.8198  15.1861  15.3276

          k = 0.3333 0.5774 0.1163 (  1425 PWs)   bands (ev):

   -74.2266 -74.2266 -40.4028 -40.3963 -40.3963 -40.3857 -40.3099 -40.3099
     9.7331   9.7331   9.9000  10.3409  11.0121  11.0121  11.4229  12.0633
    12.0633  12.5694  15.4355  15.4355

          k = 0.3333 0.5774 0.2326 (  1434 PWs)   bands (ev):

   -74.2267 -74.2267 -40.3993 -40.3993 -40.3977 -40.3911 -40.3070 -40.3070
    10.0445  10.0445  10.0460  10.2194  10.5483  10.5483  11.6752  12.0936
    12.2454  12.2454  15.6836  15.6836

     the Fermi energy is    10.9521 ev

!    total energy              =    -658.41384614 Ry
     Harris-Foulkes estimate   =    -658.41384608 Ry
     estimated scf accuracy    <          5.5E-09 Ry

     total all-electron energy =     -5091.006917 Ry

     The total energy is the sum of the following terms:

     one-electron contribution =    -296.25098203 Ry
     hartree contribution      =     160.41221415 Ry
     xc contribution           =     -69.42179312 Ry
     ewald contribution        =    -300.87482263 Ry
     one-center paw contrib.   =    -152.27916661 Ry
     smearing contrib. (-TS)   =       0.00070411 Ry

     total magnetization       =     5.99 Bohr mag/cell
     absolute magnetization    =     6.25 Bohr mag/cell

     convergence has been achieved in  24 iterations

     Forces acting on atoms (Ry/au):


     negative rho (up, down):  0.000E+00 1.003E-03
     atom    1 type  1   force =     0.00000000    0.00000000    0.00000000
     atom    2 type  1   force =    -0.00000000   -0.00000000    0.00000000

     Total force =     0.000000     Total SCF correction =     0.000000


     entering subroutine stress ...


     negative rho (up, down):  0.000E+00 1.003E-03
          total   stress  (Ry/bohr**3)                   (kbar)     P= -282.74
  -0.00202843   0.00000000   0.00000000       -298.39      0.00      0.00
   0.00000000  -0.00202843   0.00000000          0.00   -298.39      0.00
   0.00000000  -0.00000000  -0.00170927          0.00     -0.00   -251.44


     Writing output data file Fe_hcp.save

     init_run     :      4.90s CPU      4.95s WALL (       1 calls)
     electrons    :    196.97s CPU    188.17s WALL (       1 calls)
     forces       :      0.81s CPU      0.65s WALL (       1 calls)
     stress       :      2.22s CPU      2.27s WALL (       1 calls)

     Called by init_run:
     wfcinit      :      3.23s CPU      3.20s WALL (       1 calls)
     potinit      :      1.05s CPU      1.10s WALL (       1 calls)

     Called by electrons:
     c_bands      :    144.60s CPU    134.81s WALL (      24 calls)
     sum_band     :     25.19s CPU     24.94s WALL (      24 calls)
     v_of_rho     :      1.49s CPU      1.55s WALL (      25 calls)
     newd         :      1.87s CPU      1.99s WALL (      25 calls)
     mix_rho      :      0.27s CPU      0.35s WALL (      24 calls)

     Called by c_bands:
     init_us_2    :      2.08s CPU      2.15s WALL (    3672 calls)
     cegterg      :    138.63s CPU    128.67s WALL (    1728 calls)

     Called by *egterg:
     h_psi        :    111.15s CPU    108.83s WALL (    5481 calls)
     s_psi        :      5.02s CPU      2.91s WALL (    5481 calls)
     g_psi        :      0.69s CPU      0.71s WALL (    3681 calls)
     cdiaghg      :      5.24s CPU      5.36s WALL (    5409 calls)

     Called by h_psi:
     add_vuspsi   :      5.84s CPU      3.39s WALL (    5481 calls)

     General routines
     calbec       :      7.87s CPU      4.47s WALL (    7353 calls)
     fft          :      0.83s CPU      0.86s WALL (     809 calls)
     ffts         :      0.07s CPU      0.07s WALL (      98 calls)
     fftw         :    107.60s CPU    110.29s WALL (  206420 calls)
     interpolate  :      0.20s CPU      0.21s WALL (      98 calls)
     davcio       :      0.00s CPU      0.04s WALL (      72 calls)


     PAW routines
     PAW_pot      :     24.51s CPU     25.50s WALL (      25 calls)
     PAW_symme    :      0.03s CPU      0.03s WALL (      49 calls)

     PWSCF        :  3m25.38s CPU     3m16.67s WALL


   This run was terminated on:  21:14:22  11May2015            

=------------------------------------------------------------------------------=
   JOB DONE.
=------------------------------------------------------------------------------=
