
     Program PWSCF v.5.1.2 starts on 11May2015 at 18:33:44 

     This program is part of the open-source Quantum ESPRESSO suite
     for quantum simulation of materials; please cite
         "P. Giannozzi et al., J. Phys.:Condens. Matter 21 395502 (2009);
          URL http://www.quantum-espresso.org", 
     in publications or presentations arising from this work. More details at
     http://www.quantum-espresso.org/quote

     Serial version
     Reading input from Fe_HCP_5.46_173_6_3.pw.in

     Current dimensions of program PWSCF are:
     Max number of different atomic species (ntypx) = 10
     Max number of k-points (npk) =  40000
     Max angular momentum in pseudopotentials (lmaxx) =  3
               file Fe.pbe-spn-kjpaw_psl.0.2.1.UPF: wavefunction(s)  3D renormalized

     G-vector sticks info
     --------------------
     sticks:   dense  smooth     PW     G-vecs:    dense   smooth      PW
     Sum         511     421    121                16325    11755    2027

     Generating pointlists ...
     new r_m :   0.4125 (alat units)  2.2523 (a.u.) for type    1


     bravais-lattice index     =            4
     lattice parameter (alat)  =       5.4600  a.u.
     unit-cell volume          =     243.8679 (a.u.)^3
     number of atoms/cell      =            2
     number of atomic types    =            1
     number of electrons       =        32.00
     number of Kohn-Sham states=           20
     kinetic-energy cutoff     =      50.0000  Ry
     charge density cutoff     =     250.0000  Ry
     convergence threshold     =      1.0E-08
     mixing beta               =       0.7000
     number of iterations used =            8  plain     mixing
     Exchange-correlation      =  SLA  PW   PBX  PBC ( 1  4  3  4 0 0)

     celldm(1)=   5.460000  celldm(2)=   0.000000  celldm(3)=   1.730000
     celldm(4)=   0.000000  celldm(5)=   0.000000  celldm(6)=   0.000000

     crystal axes: (cart. coord. in units of alat)
               a(1) = (   1.000000   0.000000   0.000000 )  
               a(2) = (  -0.500000   0.866025   0.000000 )  
               a(3) = (   0.000000   0.000000   1.730000 )  

     reciprocal axes: (cart. coord. in units 2 pi/alat)
               b(1) = (  1.000000  0.577350 -0.000000 )  
               b(2) = (  0.000000  1.154701  0.000000 )  
               b(3) = (  0.000000 -0.000000  0.578035 )  


     PseudoPot. # 1 for Fe read from file:
     ./Fe.pbe-spn-kjpaw_psl.0.2.1.UPF
     MD5 check sum: a0a08122d52b112de96d1da1d7dd020f
     Pseudo is Projector augmented-wave + core cor, Zval = 16.0
     Generated using "atomic" code by A. Dal Corso  v.5.0.2 svn rev. 9415
     Shape of augmentation charge: PSQ
     Using radial grid of 1191 points,  6 beta functions with: 
                l(1) =   0
                l(2) =   0
                l(3) =   1
                l(4) =   1
                l(5) =   2
                l(6) =   2
     Q(r) pseudized with 0 coefficients 


     atomic species   valence    mass     pseudopotential
        Fe            16.00    55.85000     Fe( 1.00)

     Starting magnetic structure 
     atomic species   magnetization
        Fe           0.700

     24 Sym. Ops., with inversion, found (12 have fractional translation)



   Cartesian axes

     site n.     atom                  positions (alat units)
         1           Fe  tau(   1) = (  -0.0000000   0.5773503   0.4325000  )
         2           Fe  tau(   2) = (   0.5000000   0.2886751   1.2975000  )

     number of k points=    28  Marzari-Vanderbilt smearing, width (Ry)=  0.0250
                       cart. coord. in units 2pi/alat
        k(    1) = (   0.0000000   0.0000000   0.0000000), wk =   0.0092593
        k(    2) = (   0.0000000   0.0000000   0.1926782), wk =   0.0185185
        k(    3) = (   0.0000000   0.1924501   0.0000000), wk =   0.0555556
        k(    4) = (   0.0000000   0.1924501   0.1926782), wk =   0.1111111
        k(    5) = (   0.0000000   0.3849002   0.0000000), wk =   0.0555556
        k(    6) = (   0.0000000   0.3849002   0.1926782), wk =   0.1111111
        k(    7) = (   0.0000000  -0.5773503   0.0000000), wk =   0.0277778
        k(    8) = (   0.0000000  -0.5773503   0.1926782), wk =   0.0555556
        k(    9) = (   0.1666667   0.2886751   0.0000000), wk =   0.0555556
        k(   10) = (   0.1666667   0.2886751   0.1926782), wk =   0.1111111
        k(   11) = (   0.1666667   0.4811252   0.0000000), wk =   0.1111111
        k(   12) = (   0.1666667   0.4811252   0.1926782), wk =   0.2222222
        k(   13) = (   0.3333333   0.5773503   0.0000000), wk =   0.0185185
        k(   14) = (   0.3333333   0.5773503   0.1926782), wk =   0.0370370
        k(   15) = (   0.0000000   0.0000000   0.0000000), wk =   0.0092593
        k(   16) = (   0.0000000   0.0000000   0.1926782), wk =   0.0185185
        k(   17) = (   0.0000000   0.1924501   0.0000000), wk =   0.0555556
        k(   18) = (   0.0000000   0.1924501   0.1926782), wk =   0.1111111
        k(   19) = (   0.0000000   0.3849002   0.0000000), wk =   0.0555556
        k(   20) = (   0.0000000   0.3849002   0.1926782), wk =   0.1111111
        k(   21) = (   0.0000000  -0.5773503   0.0000000), wk =   0.0277778
        k(   22) = (   0.0000000  -0.5773503   0.1926782), wk =   0.0555556
        k(   23) = (   0.1666667   0.2886751   0.0000000), wk =   0.0555556
        k(   24) = (   0.1666667   0.2886751   0.1926782), wk =   0.1111111
        k(   25) = (   0.1666667   0.4811252   0.0000000), wk =   0.1111111
        k(   26) = (   0.1666667   0.4811252   0.1926782), wk =   0.2222222
        k(   27) = (   0.3333333   0.5773503   0.0000000), wk =   0.0185185
        k(   28) = (   0.3333333   0.5773503   0.1926782), wk =   0.0370370

     Dense  grid:    16325 G-vectors     FFT dimensions: (  27,  27,  48)

     Smooth grid:    11755 G-vectors     FFT dimensions: (  25,  25,  45)

     Largest allocated arrays     est. size (Mb)     dimensions
        Kohn-Sham Wavefunctions         0.45 Mb     (    1485,   20)
        NL pseudopotentials             0.82 Mb     (    1485,   36)
        Each V/rho on FFT grid          1.07 Mb     (   34992,   2)
        Each G-vector array             0.12 Mb     (   16325)
        G-vector shells                 0.01 Mb     (     849)
     Largest temporary arrays     est. size (Mb)     dimensions
        Auxiliary wavefunctions         1.81 Mb     (    1485,   80)
        Each subspace H/S matrix        0.10 Mb     (      80,   80)
        Each <psi_i|beta_j> matrix      0.01 Mb     (      36,   20)
        Arrays for rho mixing           4.27 Mb     (   34992,    8)

     Check: negative/imaginary core charge=   -0.000312    0.000000

     Initial potential from superposition of free atoms

     starting charge   31.99912, renormalised to   32.00000
     Starting wfc are   26 randomized atomic wfcs

     total cpu time spent up to now is        3.2 secs

     Self-consistent Calculation

     iteration #  1     ecut=    50.00 Ry     beta=0.70
     Davidson diagonalization with overlap
     ethr =  1.00E-02,  avg # of iterations =  2.0

     negative rho (up, down):  0.000E+00 1.120E-03

     Magnetic moment per site:
     atom:    1    charge:   14.6219    magn:    5.9548    constr:    0.0000
     atom:    2    charge:   14.6219    magn:    5.9548    constr:    0.0000

     total cpu time spent up to now is        6.8 secs

     total energy              =    -657.95200542 Ry
     Harris-Foulkes estimate   =    -656.24044189 Ry
     estimated scf accuracy    <       2.83147905 Ry

     total magnetization       =     8.00 Bohr mag/cell
     absolute magnetization    =     8.30 Bohr mag/cell

     iteration #  2     ecut=    50.00 Ry     beta=0.70
     Davidson diagonalization with overlap
     ethr =  8.85E-03,  avg # of iterations =  1.7

     negative rho (up, down):  0.000E+00 1.093E-03

     Magnetic moment per site:
     atom:    1    charge:   14.8465    magn:    4.0544    constr:    0.0000
     atom:    2    charge:   14.8465    magn:    4.0544    constr:    0.0000

     total cpu time spent up to now is       10.3 secs

     total energy              =    -658.12340053 Ry
     Harris-Foulkes estimate   =    -658.17653765 Ry
     estimated scf accuracy    <       0.85308624 Ry

     total magnetization       =     6.58 Bohr mag/cell
     absolute magnetization    =     6.88 Bohr mag/cell

     iteration #  3     ecut=    50.00 Ry     beta=0.70
     Davidson diagonalization with overlap
     ethr =  2.67E-03,  avg # of iterations =  3.1

     negative rho (up, down):  0.000E+00 1.296E-03

     Magnetic moment per site:
     atom:    1    charge:   14.7312    magn:    3.1001    constr:    0.0000
     atom:    2    charge:   14.7312    magn:    3.1001    constr:    0.0000

     total cpu time spent up to now is       14.4 secs

     total energy              =    -658.16171067 Ry
     Harris-Foulkes estimate   =    -658.64731253 Ry
     estimated scf accuracy    <       1.35013903 Ry

     total magnetization       =     6.87 Bohr mag/cell
     absolute magnetization    =     7.13 Bohr mag/cell

     iteration #  4     ecut=    50.00 Ry     beta=0.70
     Davidson diagonalization with overlap
     ethr =  2.67E-03,  avg # of iterations =  2.8

     negative rho (up, down):  0.000E+00 1.061E-03

     Magnetic moment per site:
     atom:    1    charge:   14.7904    magn:    3.0009    constr:    0.0000
     atom:    2    charge:   14.7904    magn:    3.0009    constr:    0.0000

     total cpu time spent up to now is       18.1 secs

     total energy              =    -658.38923020 Ry
     Harris-Foulkes estimate   =    -658.38905994 Ry
     estimated scf accuracy    <       0.00666038 Ry

     total magnetization       =     5.88 Bohr mag/cell
     absolute magnetization    =     6.30 Bohr mag/cell

     iteration #  5     ecut=    50.00 Ry     beta=0.70
     Davidson diagonalization with overlap
     ethr =  2.08E-05,  avg # of iterations =  3.5

     negative rho (up, down):  0.000E+00 1.063E-03

     Magnetic moment per site:
     atom:    1    charge:   14.7809    magn:    3.0026    constr:    0.0000
     atom:    2    charge:   14.7809    magn:    3.0026    constr:    0.0000

     total cpu time spent up to now is       22.9 secs

     total energy              =    -658.39668326 Ry
     Harris-Foulkes estimate   =    -658.39552874 Ry
     estimated scf accuracy    <       0.00080884 Ry

     total magnetization       =     5.81 Bohr mag/cell
     absolute magnetization    =     6.22 Bohr mag/cell

     iteration #  6     ecut=    50.00 Ry     beta=0.70
     Davidson diagonalization with overlap
     ethr =  2.53E-06,  avg # of iterations =  2.4

     negative rho (up, down):  0.000E+00 1.066E-03

     Magnetic moment per site:
     atom:    1    charge:   14.7808    magn:    3.0032    constr:    0.0000
     atom:    2    charge:   14.7808    magn:    3.0032    constr:    0.0000

     total cpu time spent up to now is       26.4 secs

     total energy              =    -658.39689368 Ry
     Harris-Foulkes estimate   =    -658.39697258 Ry
     estimated scf accuracy    <       0.00068032 Ry

     total magnetization       =     5.79 Bohr mag/cell
     absolute magnetization    =     6.20 Bohr mag/cell

     iteration #  7     ecut=    50.00 Ry     beta=0.70
     Davidson diagonalization with overlap
     ethr =  2.13E-06,  avg # of iterations =  1.4

     negative rho (up, down):  0.000E+00 1.009E-03

     Magnetic moment per site:
     atom:    1    charge:   14.7787    magn:    2.9807    constr:    0.0000
     atom:    2    charge:   14.7787    magn:    2.9807    constr:    0.0000

     total cpu time spent up to now is       29.7 secs

     total energy              =    -658.39792366 Ry
     Harris-Foulkes estimate   =    -658.39694650 Ry
     estimated scf accuracy    <       0.00105694 Ry

     total magnetization       =     5.78 Bohr mag/cell
     absolute magnetization    =     6.19 Bohr mag/cell

     iteration #  8     ecut=    50.00 Ry     beta=0.70
     Davidson diagonalization with overlap
     ethr =  2.13E-06,  avg # of iterations =  2.5

     negative rho (up, down):  0.000E+00 1.026E-03

     Magnetic moment per site:
     atom:    1    charge:   14.7813    magn:    2.9860    constr:    0.0000
     atom:    2    charge:   14.7813    magn:    2.9860    constr:    0.0000

     total cpu time spent up to now is       33.4 secs

     total energy              =    -658.39767782 Ry
     Harris-Foulkes estimate   =    -658.39827309 Ry
     estimated scf accuracy    <       0.00041880 Ry

     total magnetization       =     5.73 Bohr mag/cell
     absolute magnetization    =     6.14 Bohr mag/cell

     iteration #  9     ecut=    50.00 Ry     beta=0.70
     Davidson diagonalization with overlap
     ethr =  1.31E-06,  avg # of iterations =  1.6

     negative rho (up, down):  0.000E+00 1.022E-03

     Magnetic moment per site:
     atom:    1    charge:   14.7812    magn:    2.9812    constr:    0.0000
     atom:    2    charge:   14.7812    magn:    2.9812    constr:    0.0000

     total cpu time spent up to now is       36.7 secs

     total energy              =    -658.39776984 Ry
     Harris-Foulkes estimate   =    -658.39769904 Ry
     estimated scf accuracy    <       0.00091300 Ry

     total magnetization       =     5.74 Bohr mag/cell
     absolute magnetization    =     6.15 Bohr mag/cell

     iteration # 10     ecut=    50.00 Ry     beta=0.70
     Davidson diagonalization with overlap
     ethr =  1.31E-06,  avg # of iterations =  1.1

     negative rho (up, down):  0.000E+00 1.020E-03

     Magnetic moment per site:
     atom:    1    charge:   14.7814    magn:    2.9792    constr:    0.0000
     atom:    2    charge:   14.7814    magn:    2.9792    constr:    0.0000

     total cpu time spent up to now is       40.0 secs

     total energy              =    -658.39778876 Ry
     Harris-Foulkes estimate   =    -658.39777996 Ry
     estimated scf accuracy    <       0.00090485 Ry

     total magnetization       =     5.73 Bohr mag/cell
     absolute magnetization    =     6.14 Bohr mag/cell

     iteration # 11     ecut=    50.00 Ry     beta=0.70
     Davidson diagonalization with overlap
     ethr =  1.31E-06,  avg # of iterations =  1.0

     negative rho (up, down):  0.000E+00 1.019E-03

     Magnetic moment per site:
     atom:    1    charge:   14.7816    magn:    2.9779    constr:    0.0000
     atom:    2    charge:   14.7816    magn:    2.9779    constr:    0.0000

     total cpu time spent up to now is       43.3 secs

     total energy              =    -658.39778702 Ry
     Harris-Foulkes estimate   =    -658.39779247 Ry
     estimated scf accuracy    <       0.00083796 Ry

     total magnetization       =     5.73 Bohr mag/cell
     absolute magnetization    =     6.14 Bohr mag/cell

     iteration # 12     ecut=    50.00 Ry     beta=0.70
     Davidson diagonalization with overlap
     ethr =  1.31E-06,  avg # of iterations =  1.0

     negative rho (up, down):  0.000E+00 1.019E-03

     Magnetic moment per site:
     atom:    1    charge:   14.7816    magn:    2.9772    constr:    0.0000
     atom:    2    charge:   14.7816    magn:    2.9772    constr:    0.0000

     total cpu time spent up to now is       46.6 secs

     total energy              =    -658.39777444 Ry
     Harris-Foulkes estimate   =    -658.39778846 Ry
     estimated scf accuracy    <       0.00081363 Ry

     total magnetization       =     5.73 Bohr mag/cell
     absolute magnetization    =     6.14 Bohr mag/cell

     iteration # 13     ecut=    50.00 Ry     beta=0.70
     Davidson diagonalization with overlap
     ethr =  1.31E-06,  avg # of iterations =  1.0

     negative rho (up, down):  0.000E+00 1.018E-03

     Magnetic moment per site:
     atom:    1    charge:   14.7818    magn:    2.9760    constr:    0.0000
     atom:    2    charge:   14.7818    magn:    2.9760    constr:    0.0000

     total cpu time spent up to now is       49.9 secs

     total energy              =    -658.39780940 Ry
     Harris-Foulkes estimate   =    -658.39777500 Ry
     estimated scf accuracy    <       0.00081005 Ry

     total magnetization       =     5.73 Bohr mag/cell
     absolute magnetization    =     6.13 Bohr mag/cell

     iteration # 14     ecut=    50.00 Ry     beta=0.70
     Davidson diagonalization with overlap
     ethr =  1.31E-06,  avg # of iterations =  1.0

     negative rho (up, down):  0.000E+00 1.014E-03

     Magnetic moment per site:
     atom:    1    charge:   14.7822    magn:    2.9713    constr:    0.0000
     atom:    2    charge:   14.7822    magn:    2.9713    constr:    0.0000

     total cpu time spent up to now is       53.1 secs

     total energy              =    -658.39799809 Ry
     Harris-Foulkes estimate   =    -658.39780996 Ry
     estimated scf accuracy    <       0.00077854 Ry

     total magnetization       =     5.73 Bohr mag/cell
     absolute magnetization    =     6.13 Bohr mag/cell

     iteration # 15     ecut=    50.00 Ry     beta=0.70
     Davidson diagonalization with overlap
     ethr =  1.31E-06,  avg # of iterations =  1.0

     negative rho (up, down):  0.000E+00 9.515E-04

     Magnetic moment per site:
     atom:    1    charge:   14.7890    magn:    2.8968    constr:    0.0000
     atom:    2    charge:   14.7890    magn:    2.8968    constr:    0.0000

     total cpu time spent up to now is       56.3 secs

     total energy              =    -658.39701714 Ry
     Harris-Foulkes estimate   =    -658.39800147 Ry
     estimated scf accuracy    <       0.00064703 Ry

     total magnetization       =     5.72 Bohr mag/cell
     absolute magnetization    =     6.13 Bohr mag/cell

     iteration # 16     ecut=    50.00 Ry     beta=0.70
     Davidson diagonalization with overlap
     ethr =  1.31E-06,  avg # of iterations =  3.4

     negative rho (up, down):  0.000E+00 9.678E-04

     Magnetic moment per site:
     atom:    1    charge:   14.7869    magn:    2.9166    constr:    0.0000
     atom:    2    charge:   14.7869    magn:    2.9166    constr:    0.0000

     total cpu time spent up to now is       60.6 secs

     total energy              =    -658.39871497 Ry
     Harris-Foulkes estimate   =    -658.39774418 Ry
     estimated scf accuracy    <       0.00035352 Ry

     total magnetization       =     5.64 Bohr mag/cell
     absolute magnetization    =     6.03 Bohr mag/cell

     iteration # 17     ecut=    50.00 Ry     beta=0.70
     Davidson diagonalization with overlap
     ethr =  1.10E-06,  avg # of iterations =  1.5

     negative rho (up, down):  0.000E+00 9.604E-04

     Magnetic moment per site:
     atom:    1    charge:   14.7875    magn:    2.9078    constr:    0.0000
     atom:    2    charge:   14.7875    magn:    2.9078    constr:    0.0000

     total cpu time spent up to now is       63.9 secs

     total energy              =    -658.39867717 Ry
     Harris-Foulkes estimate   =    -658.39874468 Ry
     estimated scf accuracy    <       0.00002027 Ry

     total magnetization       =     5.66 Bohr mag/cell
     absolute magnetization    =     6.05 Bohr mag/cell

     iteration # 18     ecut=    50.00 Ry     beta=0.70
     Davidson diagonalization with overlap
     ethr =  6.33E-08,  avg # of iterations =  3.1

     negative rho (up, down):  0.000E+00 9.675E-04

     Magnetic moment per site:
     atom:    1    charge:   14.7865    magn:    2.9168    constr:    0.0000
     atom:    2    charge:   14.7865    magn:    2.9168    constr:    0.0000

     total cpu time spent up to now is       67.6 secs

     total energy              =    -658.39878948 Ry
     Harris-Foulkes estimate   =    -658.39868890 Ry
     estimated scf accuracy    <       0.00005875 Ry

     total magnetization       =     5.65 Bohr mag/cell
     absolute magnetization    =     6.04 Bohr mag/cell

     iteration # 19     ecut=    50.00 Ry     beta=0.70
     Davidson diagonalization with overlap
     ethr =  6.33E-08,  avg # of iterations =  2.4

     negative rho (up, down):  0.000E+00 9.695E-04

     Magnetic moment per site:
     atom:    1    charge:   14.7863    magn:    2.9195    constr:    0.0000
     atom:    2    charge:   14.7863    magn:    2.9195    constr:    0.0000

     total cpu time spent up to now is       71.2 secs

     total energy              =    -658.39879975 Ry
     Harris-Foulkes estimate   =    -658.39879879 Ry
     estimated scf accuracy    <       0.00000163 Ry

     total magnetization       =     5.66 Bohr mag/cell
     absolute magnetization    =     6.05 Bohr mag/cell

     iteration # 20     ecut=    50.00 Ry     beta=0.70
     Davidson diagonalization with overlap
     ethr =  5.08E-09,  avg # of iterations =  3.2

     negative rho (up, down):  0.000E+00 9.701E-04

     Magnetic moment per site:
     atom:    1    charge:   14.7862    magn:    2.9202    constr:    0.0000
     atom:    2    charge:   14.7862    magn:    2.9202    constr:    0.0000

     total cpu time spent up to now is       75.1 secs

     total energy              =    -658.39880070 Ry
     Harris-Foulkes estimate   =    -658.39880074 Ry
     estimated scf accuracy    <       0.00000005 Ry

     total magnetization       =     5.66 Bohr mag/cell
     absolute magnetization    =     6.05 Bohr mag/cell

     iteration # 21     ecut=    50.00 Ry     beta=0.70
     Davidson diagonalization with overlap
     ethr =  1.47E-10,  avg # of iterations =  4.1

     negative rho (up, down):  0.000E+00 9.684E-04

     Magnetic moment per site:
     atom:    1    charge:   14.7864    magn:    2.9183    constr:    0.0000
     atom:    2    charge:   14.7864    magn:    2.9183    constr:    0.0000

     total cpu time spent up to now is       79.6 secs

     total energy              =    -658.39879971 Ry
     Harris-Foulkes estimate   =    -658.39880083 Ry
     estimated scf accuracy    <       0.00000017 Ry

     total magnetization       =     5.66 Bohr mag/cell
     absolute magnetization    =     6.05 Bohr mag/cell

     iteration # 22     ecut=    50.00 Ry     beta=0.70
     Davidson diagonalization with overlap
     ethr =  1.47E-10,  avg # of iterations =  3.9

     negative rho (up, down):  0.000E+00 9.689E-04

     Magnetic moment per site:
     atom:    1    charge:   14.7863    magn:    2.9189    constr:    0.0000
     atom:    2    charge:   14.7863    magn:    2.9189    constr:    0.0000

     total cpu time spent up to now is       83.9 secs

     total energy              =    -658.39880092 Ry
     Harris-Foulkes estimate   =    -658.39880010 Ry
     estimated scf accuracy    <       0.00000071 Ry

     total magnetization       =     5.66 Bohr mag/cell
     absolute magnetization    =     6.05 Bohr mag/cell

     iteration # 23     ecut=    50.00 Ry     beta=0.70
     Davidson diagonalization with overlap
     ethr =  1.47E-10,  avg # of iterations =  2.6

     negative rho (up, down):  0.000E+00 9.705E-04

     Magnetic moment per site:
     atom:    1    charge:   14.7863    magn:    2.9204    constr:    0.0000
     atom:    2    charge:   14.7863    magn:    2.9204    constr:    0.0000

     total cpu time spent up to now is       87.6 secs

     total energy              =    -658.39880083 Ry
     Harris-Foulkes estimate   =    -658.39880096 Ry
     estimated scf accuracy    <       0.00000026 Ry

     total magnetization       =     5.66 Bohr mag/cell
     absolute magnetization    =     6.05 Bohr mag/cell

     iteration # 24     ecut=    50.00 Ry     beta=0.70
     Davidson diagonalization with overlap
     ethr =  1.47E-10,  avg # of iterations =  3.8

     negative rho (up, down):  0.000E+00 9.702E-04

     Magnetic moment per site:
     atom:    1    charge:   14.7863    magn:    2.9201    constr:    0.0000
     atom:    2    charge:   14.7863    magn:    2.9201    constr:    0.0000

     total cpu time spent up to now is       91.9 secs

     total energy              =    -658.39880124 Ry
     Harris-Foulkes estimate   =    -658.39880105 Ry
     estimated scf accuracy    <       0.00000005 Ry

     total magnetization       =     5.66 Bohr mag/cell
     absolute magnetization    =     6.05 Bohr mag/cell

     iteration # 25     ecut=    50.00 Ry     beta=0.70
     Davidson diagonalization with overlap
     ethr =  1.43E-10,  avg # of iterations =  1.5

     negative rho (up, down):  0.000E+00 9.702E-04

     Magnetic moment per site:
     atom:    1    charge:   14.7863    magn:    2.9201    constr:    0.0000
     atom:    2    charge:   14.7863    magn:    2.9201    constr:    0.0000

     total cpu time spent up to now is       95.1 secs

     End of self-consistent calculation

 ------ SPIN UP ------------


          k = 0.0000 0.0000 0.0000 (  1485 PWs)   bands (ev):

   -77.9972 -77.9901 -44.0669 -44.0669 -44.0601 -44.0601 -43.9573 -43.8992
     3.8256   6.8876   8.1265   8.1265   8.2444   8.2444   8.2849   8.2849
     8.4282   8.7232   8.7232  10.0561

          k = 0.0000 0.0000 0.1927 (  1449 PWs)   bands (ev):

   -77.9945 -77.9917 -44.0648 -44.0648 -44.0608 -44.0608 -43.9434 -43.9131
     4.5206   6.1842   8.0603   8.0603   8.1441   8.1441   8.3469   8.4921
     8.4921   8.5519   8.6865   8.6865

          k = 0.0000 0.1925 0.0000 (  1455 PWs)   bands (ev):

   -77.9942 -77.9885 -44.0838 -44.0761 -44.0719 -44.0630 -43.9518 -43.9000
     4.5272   7.2823   7.8513   7.9555   8.1321   8.1718   8.2234   8.3742
     8.4714   8.6462   8.7503  11.5243

          k = 0.0000 0.1925 0.1927 (  1448 PWs)   bands (ev):

   -77.9926 -77.9899 -44.0823 -44.0784 -44.0694 -44.0648 -43.9389 -43.9127
     5.1772   6.6821   7.7854   7.9181   8.1315   8.1853   8.2307   8.3304
     8.5354   8.7120   8.7594   9.4988

          k = 0.0000 0.3849 0.0000 (  1458 PWs)   bands (ev):

   -77.9899 -77.9856 -44.1177 -44.1106 -44.0813 -44.0701 -43.9387 -43.9050
     6.2292   7.1834   7.2686   7.9590   7.9820   8.0376   8.5197   8.7701
     8.9138   8.9632   9.3054  14.1020

          k = 0.0000 0.3849 0.1927 (  1455 PWs)   bands (ev):

   -77.9886 -77.9867 -44.1165 -44.1128 -44.0787 -44.0731 -43.9296 -43.9128
     6.4694   6.9580   7.4949   7.6622   8.1481   8.5239   8.6056   8.7801
     8.9448   8.9856   9.1811  10.7411

          k = 0.0000-0.5774 0.0000 (  1484 PWs)   bands (ev):

   -77.9876 -77.9850 -44.1353 -44.1274 -44.0863 -44.0747 -43.9302 -43.9109
     6.9373   6.9661   7.0440   7.8352   7.8967   8.6930   8.7713   8.7775
     9.1959   9.2473  11.0500  12.1352

          k = 0.0000-0.5774 0.1927 (  1466 PWs)   bands (ev):

   -77.9866 -77.9854 -44.1338 -44.1301 -44.0832 -44.0775 -43.9238 -43.9141
     6.6766   6.9240   7.4339   7.4749   8.0943   8.5282   8.9717   9.2117
     9.2361   9.4438  11.0635  11.8877

          k = 0.1667 0.2887 0.0000 (  1450 PWs)   bands (ev):

   -77.9906 -77.9864 -44.1039 -44.1016 -44.0802 -44.0725 -43.9429 -43.9029
     5.7932   7.3662   7.6579   7.6763   7.8683   8.1197   8.1609   8.7202
     8.7214   8.9347   9.1727  13.3875

          k = 0.1667 0.2887 0.1927 (  1447 PWs)   bands (ev):

   -77.9896 -77.9873 -44.1034 -44.1023 -44.0786 -44.0749 -43.9319 -43.9123
     6.2536   7.0746   7.7125   7.7353   8.0186   8.1067   8.1623   8.4579
     8.9641   9.0303   9.1442  10.3781

          k = 0.1667 0.4811 0.0000 (  1464 PWs)   bands (ev):

   -77.9871 -77.9848 -44.1261 -44.1194 -44.0937 -44.0838 -43.9299 -43.9102
     7.0755   7.1452   7.3455   7.7591   7.9169   8.0317   8.4937   8.6844
     9.0931   9.3697  10.6037  14.1784

          k = 0.1667 0.4811 0.1927 (  1456 PWs)   bands (ev):

   -77.9864 -77.9853 -44.1248 -44.1216 -44.0914 -44.0862 -43.9237 -43.9140
     6.9154   7.1468   7.5307   7.6821   7.8914   8.2974   8.5618   8.5697
     9.2356   9.4493  10.8676  12.4966

          k = 0.3333 0.5774 0.0000 (  1434 PWs)   bands (ev):

   -77.9847 -77.9847 -44.1184 -44.1106 -44.1106 -44.1026 -43.9183 -43.9183
     7.1208   7.6582   7.6582   7.7087   7.7415   7.7415   8.4042   8.6012
     9.3097   9.3097  13.5517  13.6814

          k = 0.3333 0.5774 0.1927 (  1473 PWs)   bands (ev):

   -77.9852 -77.9852 -44.1152 -44.1123 -44.1123 -44.1073 -43.9180 -43.9180
     7.3138   7.4495   7.4495   7.6411   7.9554   7.9554   8.3568   8.4081
     9.3926   9.3926  14.0306  14.0306

 ------ SPIN DOWN ----------


          k = 0.0000 0.0000 0.0000 (  1485 PWs)   bands (ev):

   -74.6488 -74.6411 -40.7676 -40.7676 -40.7597 -40.7597 -40.7390 -40.6698
     4.0441   7.7990  10.0029  10.1291  10.7366  10.7366  10.9011  10.9011
    11.9720  11.9720  12.5585  12.5585

          k = 0.0000 0.0000 0.1927 (  1449 PWs)   bands (ev):

   -74.6462 -74.6429 -40.7653 -40.7653 -40.7608 -40.7608 -40.7221 -40.6867
     4.7437   6.5621   9.6935   9.8568  10.7397  10.7397  10.8252  10.8252
    12.1602  12.1602  12.4509  12.4509

          k = 0.0000 0.1925 0.0000 (  1455 PWs)   bands (ev):

   -74.6457 -74.6393 -40.7876 -40.7790 -40.7734 -40.7633 -40.7325 -40.6710
     4.7519   8.3156   9.8937  10.0607  10.5525  10.7465  11.0392  11.1787
    11.7110  11.7995  12.6038  13.4824

          k = 0.0000 0.1925 0.1927 (  1448 PWs)   bands (ev):

   -74.6440 -74.6409 -40.7865 -40.7819 -40.7707 -40.7655 -40.7165 -40.6858
     5.4289   7.1858   9.6672   9.9614  10.4800  10.6457  11.0275  11.1014
    11.9991  12.0452  12.4356  12.5605

          k = 0.0000 0.3849 0.0000 (  1458 PWs)   bands (ev):

   -74.6407 -74.6360 -40.8278 -40.8194 -40.7846 -40.7717 -40.7169 -40.6771
     6.6594   9.0668   9.7017   9.8849  10.2717  11.2126  11.2359  11.5177
    11.7255  11.7898  12.6359  14.8614

          k = 0.0000 0.3849 0.1927 (  1455 PWs)   bands (ev):

   -74.6394 -74.6372 -40.8271 -40.8227 -40.7815 -40.7751 -40.7055 -40.6857
     7.2191   8.5187   9.5927  10.0240  10.1879  10.6824  11.5961  11.7223
    11.8110  11.9188  12.3700  12.8138

          k = 0.0000-0.5774 0.0000 (  1484 PWs)   bands (ev):

   -74.6379 -74.6351 -40.8485 -40.8393 -40.7904 -40.7769 -40.7064 -40.6837
     8.3829   8.9140   9.6339   9.6941  10.3847  10.9767  11.3930  12.0971
    12.1593  12.3778  12.6381  13.4400

          k = 0.0000-0.5774 0.1927 (  1466 PWs)   bands (ev):

   -74.6370 -74.6356 -40.8475 -40.8430 -40.7868 -40.7801 -40.6986 -40.6872
     8.5490   8.8470   9.5925   9.8246  10.5100  11.4196  11.6545  11.9402
    12.0966  12.1493  12.2901  12.9434

          k = 0.1667 0.2887 0.0000 (  1450 PWs)   bands (ev):

   -74.6418 -74.6368 -40.8115 -40.8089 -40.7833 -40.7746 -40.7216 -40.6747
     6.0765   9.0440   9.7557   9.8518  10.4788  10.6789  11.2997  11.5509
    11.6364  11.7312  12.5623  14.7658

          k = 0.1667 0.2887 0.1927 (  1447 PWs)   bands (ev):

   -74.6406 -74.6380 -40.8116 -40.8102 -40.7816 -40.7773 -40.7082 -40.6852
     6.6931   8.2409   9.6464  10.0193  10.2034  10.4116  11.4326  11.6107
    11.8532  11.9566  12.3475  12.8127

          k = 0.1667 0.4811 0.0000 (  1464 PWs)   bands (ev):

   -74.6376 -74.6350 -40.8377 -40.8299 -40.7992 -40.7877 -40.7063 -40.6832
     8.1484   9.2682   9.5886   9.8153  10.5042  11.0051  11.2646  11.3253
    11.8639  12.5090  12.6380  15.0688

          k = 0.1667 0.4811 0.1927 (  1456 PWs)   bands (ev):

   -74.6368 -74.6356 -40.8368 -40.8330 -40.7968 -40.7908 -40.6984 -40.6869
     8.5168   9.1941   9.5971   9.9708  10.2266  10.5855  11.4110  11.7484
    11.9510  12.0872  12.8465  13.7956

          k = 0.3333 0.5774 0.0000 (  1434 PWs)   bands (ev):

   -74.6348 -74.6348 -40.8284 -40.8196 -40.8196 -40.8103 -40.6929 -40.6929
     9.2438   9.2438   9.4697  10.0561  10.9030  10.9280  10.9280  11.4053
    11.4053  12.3922  14.6902  14.7990

          k = 0.3333 0.5774 0.1927 (  1473 PWs)   bands (ev):

   -74.6353 -74.6353 -40.8245 -40.8222 -40.8222 -40.8154 -40.6914 -40.6914
     9.5488   9.5488   9.6162   9.9145  10.3114  10.3114  11.1540  11.7526
    11.7526  11.8426  15.0733  15.0733

     the Fermi energy is    10.5846 ev

!    total energy              =    -658.39880125 Ry
     Harris-Foulkes estimate   =    -658.39880124 Ry
     estimated scf accuracy    <          5.4E-10 Ry

     total all-electron energy =     -5090.991872 Ry

     The total energy is the sum of the following terms:

     one-electron contribution =    -301.06699649 Ry
     hartree contribution      =     162.40492413 Ry
     xc contribution           =     -69.39371000 Ry
     ewald contribution        =    -298.06557968 Ry
     one-center paw contrib.   =    -152.27689653 Ry
     smearing contrib. (-TS)   =      -0.00054269 Ry

     total magnetization       =     5.66 Bohr mag/cell
     absolute magnetization    =     6.05 Bohr mag/cell

     convergence has been achieved in  25 iterations

     Forces acting on atoms (Ry/au):


     negative rho (up, down):  0.000E+00 9.702E-04
     atom    1 type  1   force =     0.00000000   -0.00000000    0.00000000
     atom    2 type  1   force =     0.00000000    0.00000000    0.00000000

     Total force =     0.000000     Total SCF correction =     0.000000


     entering subroutine stress ...


     negative rho (up, down):  0.000E+00 9.702E-04
          total   stress  (Ry/bohr**3)                   (kbar)     P= -296.70
  -0.00216845   0.00000000   0.00000000       -318.99      0.00      0.00
   0.00000000  -0.00216845   0.00000000          0.00   -318.99      0.00
  -0.00000000  -0.00000000  -0.00171394         -0.00     -0.00   -252.13


     Writing output data file Fe_hcp.save

     init_run     :      2.82s CPU      2.81s WALL (       1 calls)
     electrons    :     96.07s CPU     91.92s WALL (       1 calls)
     forces       :      0.53s CPU      0.46s WALL (       1 calls)
     stress       :      1.57s CPU      1.57s WALL (       1 calls)

     Called by init_run:
     wfcinit      :      1.12s CPU      1.07s WALL (       1 calls)
     potinit      :      1.07s CPU      1.10s WALL (       1 calls)

     Called by electrons:
     c_bands      :     57.28s CPU     52.61s WALL (      25 calls)
     sum_band     :     11.51s CPU     11.27s WALL (      25 calls)
     v_of_rho     :      1.50s CPU      1.55s WALL (      26 calls)
     newd         :      1.88s CPU      1.98s WALL (      26 calls)
     mix_rho      :      0.29s CPU      0.35s WALL (      25 calls)

     Called by c_bands:
     init_us_2    :      0.83s CPU      0.84s WALL (    1484 calls)
     cegterg      :     54.80s CPU     50.10s WALL (     700 calls)

     Called by *egterg:
     h_psi        :     43.53s CPU     41.91s WALL (    2306 calls)
     s_psi        :      1.96s CPU      1.11s WALL (    2306 calls)
     g_psi        :      0.29s CPU      0.29s WALL (    1578 calls)
     cdiaghg      :      2.21s CPU      2.23s WALL (    2278 calls)

     Called by h_psi:
     add_vuspsi   :      2.28s CPU      1.30s WALL (    2306 calls)

     General routines
     calbec       :      3.01s CPU      1.68s WALL (    3062 calls)
     fft          :      0.83s CPU      0.85s WALL (     840 calls)
     ffts         :      0.07s CPU      0.07s WALL (     102 calls)
     fftw         :     41.93s CPU     42.22s WALL (   83524 calls)
     interpolate  :      0.19s CPU      0.20s WALL (     102 calls)
     davcio       :      0.00s CPU      0.01s WALL (      28 calls)


     PAW routines
     PAW_pot      :     24.60s CPU     25.16s WALL (      26 calls)
     PAW_symme    :      0.03s CPU      0.03s WALL (      51 calls)

     PWSCF        :  1m41.40s CPU     1m37.23s WALL


   This run was terminated on:  18:35:21  11May2015            

=------------------------------------------------------------------------------=
   JOB DONE.
=------------------------------------------------------------------------------=
