
     Program PWSCF v.5.1.2 starts on 11May2015 at 20:36:37 

     This program is part of the open-source Quantum ESPRESSO suite
     for quantum simulation of materials; please cite
         "P. Giannozzi et al., J. Phys.:Condens. Matter 21 395502 (2009);
          URL http://www.quantum-espresso.org", 
     in publications or presentations arising from this work. More details at
     http://www.quantum-espresso.org/quote

     Serial version
     Reading input from Fe_HCP_5.46_174_8_4.pw.in

     Current dimensions of program PWSCF are:
     Max number of different atomic species (ntypx) = 10
     Max number of k-points (npk) =  40000
     Max angular momentum in pseudopotentials (lmaxx) =  3
               file Fe.pbe-spn-kjpaw_psl.0.2.1.UPF: wavefunction(s)  3D renormalized

     G-vector sticks info
     --------------------
     sticks:   dense  smooth     PW     G-vecs:    dense   smooth      PW
     Sum         511     421    121                16421    11827    2027

     Generating pointlists ...
     new r_m :   0.4125 (alat units)  2.2523 (a.u.) for type    1


     bravais-lattice index     =            4
     lattice parameter (alat)  =       5.4600  a.u.
     unit-cell volume          =     245.2776 (a.u.)^3
     number of atoms/cell      =            2
     number of atomic types    =            1
     number of electrons       =        32.00
     number of Kohn-Sham states=           20
     kinetic-energy cutoff     =      50.0000  Ry
     charge density cutoff     =     250.0000  Ry
     convergence threshold     =      1.0E-08
     mixing beta               =       0.7000
     number of iterations used =            8  plain     mixing
     Exchange-correlation      =  SLA  PW   PBX  PBC ( 1  4  3  4 0 0)

     celldm(1)=   5.460000  celldm(2)=   0.000000  celldm(3)=   1.740000
     celldm(4)=   0.000000  celldm(5)=   0.000000  celldm(6)=   0.000000

     crystal axes: (cart. coord. in units of alat)
               a(1) = (   1.000000   0.000000   0.000000 )  
               a(2) = (  -0.500000   0.866025   0.000000 )  
               a(3) = (   0.000000   0.000000   1.740000 )  

     reciprocal axes: (cart. coord. in units 2 pi/alat)
               b(1) = (  1.000000  0.577350 -0.000000 )  
               b(2) = (  0.000000  1.154701  0.000000 )  
               b(3) = (  0.000000 -0.000000  0.574713 )  


     PseudoPot. # 1 for Fe read from file:
     ./Fe.pbe-spn-kjpaw_psl.0.2.1.UPF
     MD5 check sum: a0a08122d52b112de96d1da1d7dd020f
     Pseudo is Projector augmented-wave + core cor, Zval = 16.0
     Generated using "atomic" code by A. Dal Corso  v.5.0.2 svn rev. 9415
     Shape of augmentation charge: PSQ
     Using radial grid of 1191 points,  6 beta functions with: 
                l(1) =   0
                l(2) =   0
                l(3) =   1
                l(4) =   1
                l(5) =   2
                l(6) =   2
     Q(r) pseudized with 0 coefficients 


     atomic species   valence    mass     pseudopotential
        Fe            16.00    55.85000     Fe( 1.00)

     Starting magnetic structure 
     atomic species   magnetization
        Fe           0.700

     24 Sym. Ops., with inversion, found (12 have fractional translation)



   Cartesian axes

     site n.     atom                  positions (alat units)
         1           Fe  tau(   1) = (  -0.0000000   0.5773503   0.4350000  )
         2           Fe  tau(   2) = (   0.5000000   0.2886751   1.3050000  )

     number of k points=    60  Marzari-Vanderbilt smearing, width (Ry)=  0.0250
                       cart. coord. in units 2pi/alat
        k(    1) = (   0.0000000   0.0000000   0.0000000), wk =   0.0039062
        k(    2) = (   0.0000000   0.0000000   0.1436782), wk =   0.0078125
        k(    3) = (   0.0000000   0.0000000  -0.2873563), wk =   0.0039062
        k(    4) = (   0.0000000   0.1443376   0.0000000), wk =   0.0234375
        k(    5) = (   0.0000000   0.1443376   0.1436782), wk =   0.0468750
        k(    6) = (   0.0000000   0.1443376  -0.2873563), wk =   0.0234375
        k(    7) = (   0.0000000   0.2886751   0.0000000), wk =   0.0234375
        k(    8) = (   0.0000000   0.2886751   0.1436782), wk =   0.0468750
        k(    9) = (   0.0000000   0.2886751  -0.2873563), wk =   0.0234375
        k(   10) = (   0.0000000   0.4330127   0.0000000), wk =   0.0234375
        k(   11) = (   0.0000000   0.4330127   0.1436782), wk =   0.0468750
        k(   12) = (   0.0000000   0.4330127  -0.2873563), wk =   0.0234375
        k(   13) = (   0.0000000  -0.5773503   0.0000000), wk =   0.0117188
        k(   14) = (   0.0000000  -0.5773503   0.1436782), wk =   0.0234375
        k(   15) = (   0.0000000  -0.5773503  -0.2873563), wk =   0.0117188
        k(   16) = (   0.1250000   0.2165064   0.0000000), wk =   0.0234375
        k(   17) = (   0.1250000   0.2165064   0.1436782), wk =   0.0468750
        k(   18) = (   0.1250000   0.2165064  -0.2873563), wk =   0.0234375
        k(   19) = (   0.1250000   0.3608439   0.0000000), wk =   0.0468750
        k(   20) = (   0.1250000   0.3608439   0.1436782), wk =   0.0937500
        k(   21) = (   0.1250000   0.3608439  -0.2873563), wk =   0.0468750
        k(   22) = (   0.1250000   0.5051815   0.0000000), wk =   0.0468750
        k(   23) = (   0.1250000   0.5051815   0.1436782), wk =   0.0937500
        k(   24) = (   0.1250000   0.5051815  -0.2873563), wk =   0.0468750
        k(   25) = (   0.2500000   0.4330127   0.0000000), wk =   0.0234375
        k(   26) = (   0.2500000   0.4330127   0.1436782), wk =   0.0468750
        k(   27) = (   0.2500000   0.4330127  -0.2873563), wk =   0.0234375
        k(   28) = (   0.2500000   0.5773503   0.0000000), wk =   0.0234375
        k(   29) = (   0.2500000   0.5773503   0.1436782), wk =   0.0468750
        k(   30) = (   0.2500000   0.5773503  -0.2873563), wk =   0.0234375
        k(   31) = (   0.0000000   0.0000000   0.0000000), wk =   0.0039062
        k(   32) = (   0.0000000   0.0000000   0.1436782), wk =   0.0078125
        k(   33) = (   0.0000000   0.0000000  -0.2873563), wk =   0.0039062
        k(   34) = (   0.0000000   0.1443376   0.0000000), wk =   0.0234375
        k(   35) = (   0.0000000   0.1443376   0.1436782), wk =   0.0468750
        k(   36) = (   0.0000000   0.1443376  -0.2873563), wk =   0.0234375
        k(   37) = (   0.0000000   0.2886751   0.0000000), wk =   0.0234375
        k(   38) = (   0.0000000   0.2886751   0.1436782), wk =   0.0468750
        k(   39) = (   0.0000000   0.2886751  -0.2873563), wk =   0.0234375
        k(   40) = (   0.0000000   0.4330127   0.0000000), wk =   0.0234375
        k(   41) = (   0.0000000   0.4330127   0.1436782), wk =   0.0468750
        k(   42) = (   0.0000000   0.4330127  -0.2873563), wk =   0.0234375
        k(   43) = (   0.0000000  -0.5773503   0.0000000), wk =   0.0117188
        k(   44) = (   0.0000000  -0.5773503   0.1436782), wk =   0.0234375
        k(   45) = (   0.0000000  -0.5773503  -0.2873563), wk =   0.0117188
        k(   46) = (   0.1250000   0.2165064   0.0000000), wk =   0.0234375
        k(   47) = (   0.1250000   0.2165064   0.1436782), wk =   0.0468750
        k(   48) = (   0.1250000   0.2165064  -0.2873563), wk =   0.0234375
        k(   49) = (   0.1250000   0.3608439   0.0000000), wk =   0.0468750
        k(   50) = (   0.1250000   0.3608439   0.1436782), wk =   0.0937500
        k(   51) = (   0.1250000   0.3608439  -0.2873563), wk =   0.0468750
        k(   52) = (   0.1250000   0.5051815   0.0000000), wk =   0.0468750
        k(   53) = (   0.1250000   0.5051815   0.1436782), wk =   0.0937500
        k(   54) = (   0.1250000   0.5051815  -0.2873563), wk =   0.0468750
        k(   55) = (   0.2500000   0.4330127   0.0000000), wk =   0.0234375
        k(   56) = (   0.2500000   0.4330127   0.1436782), wk =   0.0468750
        k(   57) = (   0.2500000   0.4330127  -0.2873563), wk =   0.0234375
        k(   58) = (   0.2500000   0.5773503   0.0000000), wk =   0.0234375
        k(   59) = (   0.2500000   0.5773503   0.1436782), wk =   0.0468750
        k(   60) = (   0.2500000   0.5773503  -0.2873563), wk =   0.0234375

     Dense  grid:    16421 G-vectors     FFT dimensions: (  27,  27,  48)

     Smooth grid:    11827 G-vectors     FFT dimensions: (  25,  25,  45)

     Largest allocated arrays     est. size (Mb)     dimensions
        Kohn-Sham Wavefunctions         0.45 Mb     (    1485,   20)
        NL pseudopotentials             0.82 Mb     (    1485,   36)
        Each V/rho on FFT grid          1.07 Mb     (   34992,   2)
        Each G-vector array             0.13 Mb     (   16421)
        G-vector shells                 0.01 Mb     (     853)
     Largest temporary arrays     est. size (Mb)     dimensions
        Auxiliary wavefunctions         1.81 Mb     (    1485,   80)
        Each subspace H/S matrix        0.10 Mb     (      80,   80)
        Each <psi_i|beta_j> matrix      0.01 Mb     (      36,   20)
        Arrays for rho mixing           4.27 Mb     (   34992,    8)

     Check: negative/imaginary core charge=   -0.000311    0.000000

     Initial potential from superposition of free atoms

     starting charge   31.99912, renormalised to   32.00000
     Starting wfc are   26 randomized atomic wfcs

     total cpu time spent up to now is        4.9 secs

     Self-consistent Calculation

     iteration #  1     ecut=    50.00 Ry     beta=0.70
     Davidson diagonalization with overlap
     ethr =  1.00E-02,  avg # of iterations =  1.9

     negative rho (up, down):  0.000E+00 1.124E-03

     Magnetic moment per site:
     atom:    1    charge:   14.6144    magn:    5.9517    constr:    0.0000
     atom:    2    charge:   14.6144    magn:    5.9517    constr:    0.0000

     total cpu time spent up to now is       11.8 secs

     total energy              =    -657.95597578 Ry
     Harris-Foulkes estimate   =    -656.24471764 Ry
     estimated scf accuracy    <       2.83477659 Ry

     total magnetization       =     8.00 Bohr mag/cell
     absolute magnetization    =     8.29 Bohr mag/cell

     iteration #  2     ecut=    50.00 Ry     beta=0.70
     Davidson diagonalization with overlap
     ethr =  8.86E-03,  avg # of iterations =  1.6

     negative rho (up, down):  0.000E+00 1.092E-03

     Magnetic moment per site:
     atom:    1    charge:   14.8421    magn:    4.0591    constr:    0.0000
     atom:    2    charge:   14.8421    magn:    4.0591    constr:    0.0000

     total cpu time spent up to now is       17.7 secs

     total energy              =    -658.11669393 Ry
     Harris-Foulkes estimate   =    -658.17367111 Ry
     estimated scf accuracy    <       0.85886494 Ry

     total magnetization       =     6.58 Bohr mag/cell
     absolute magnetization    =     6.87 Bohr mag/cell

     iteration #  3     ecut=    50.00 Ry     beta=0.70
     Davidson diagonalization with overlap
     ethr =  2.68E-03,  avg # of iterations =  3.0

     negative rho (up, down):  0.000E+00 1.294E-03

     Magnetic moment per site:
     atom:    1    charge:   14.7268    magn:    3.0954    constr:    0.0000
     atom:    2    charge:   14.7268    magn:    3.0954    constr:    0.0000

     total cpu time spent up to now is       24.8 secs

     total energy              =    -658.15653153 Ry
     Harris-Foulkes estimate   =    -658.64559332 Ry
     estimated scf accuracy    <       1.36582354 Ry

     total magnetization       =     6.86 Bohr mag/cell
     absolute magnetization    =     7.11 Bohr mag/cell

     iteration #  4     ecut=    50.00 Ry     beta=0.70
     Davidson diagonalization with overlap
     ethr =  2.68E-03,  avg # of iterations =  2.7

     negative rho (up, down):  0.000E+00 1.072E-03

     Magnetic moment per site:
     atom:    1    charge:   14.7867    magn:    3.0389    constr:    0.0000
     atom:    2    charge:   14.7867    magn:    3.0389    constr:    0.0000

     total cpu time spent up to now is       31.4 secs

     total energy              =    -658.39102602 Ry
     Harris-Foulkes estimate   =    -658.39098111 Ry
     estimated scf accuracy    <       0.00652954 Ry

     total magnetization       =     5.95 Bohr mag/cell
     absolute magnetization    =     6.32 Bohr mag/cell

     iteration #  5     ecut=    50.00 Ry     beta=0.70
     Davidson diagonalization with overlap
     ethr =  2.04E-05,  avg # of iterations =  3.2

     negative rho (up, down):  0.000E+00 1.088E-03

     Magnetic moment per site:
     atom:    1    charge:   14.7757    magn:    3.0396    constr:    0.0000
     atom:    2    charge:   14.7757    magn:    3.0396    constr:    0.0000

     total cpu time spent up to now is       40.0 secs

     total energy              =    -658.39808965 Ry
     Harris-Foulkes estimate   =    -658.39695541 Ry
     estimated scf accuracy    <       0.00075695 Ry

     total magnetization       =     5.91 Bohr mag/cell
     absolute magnetization    =     6.28 Bohr mag/cell

     iteration #  6     ecut=    50.00 Ry     beta=0.70
     Davidson diagonalization with overlap
     ethr =  2.37E-06,  avg # of iterations =  2.1

     negative rho (up, down):  0.000E+00 1.113E-03

     Magnetic moment per site:
     atom:    1    charge:   14.7748    magn:    3.0503    constr:    0.0000
     atom:    2    charge:   14.7748    magn:    3.0503    constr:    0.0000

     total cpu time spent up to now is       46.0 secs

     total energy              =    -658.39723728 Ry
     Harris-Foulkes estimate   =    -658.39834915 Ry
     estimated scf accuracy    <       0.00064039 Ry

     total magnetization       =     5.90 Bohr mag/cell
     absolute magnetization    =     6.26 Bohr mag/cell

     iteration #  7     ecut=    50.00 Ry     beta=0.70
     Davidson diagonalization with overlap
     ethr =  2.00E-06,  avg # of iterations =  1.5

     negative rho (up, down):  0.000E+00 1.040E-03

     Magnetic moment per site:
     atom:    1    charge:   14.7757    magn:    3.0154    constr:    0.0000
     atom:    2    charge:   14.7757    magn:    3.0154    constr:    0.0000

     total cpu time spent up to now is       51.8 secs

     total energy              =    -658.39877468 Ry
     Harris-Foulkes estimate   =    -658.39727191 Ry
     estimated scf accuracy    <       0.00171972 Ry

     total magnetization       =     5.90 Bohr mag/cell
     absolute magnetization    =     6.26 Bohr mag/cell

     iteration #  8     ecut=    50.00 Ry     beta=0.70
     Davidson diagonalization with overlap
     ethr =  2.00E-06,  avg # of iterations =  2.8

     negative rho (up, down):  0.000E+00 1.057E-03

     Magnetic moment per site:
     atom:    1    charge:   14.7775    magn:    3.0186    constr:    0.0000
     atom:    2    charge:   14.7775    magn:    3.0186    constr:    0.0000

     total cpu time spent up to now is       58.8 secs

     total energy              =    -658.39941475 Ry
     Harris-Foulkes estimate   =    -658.39942364 Ry
     estimated scf accuracy    <       0.00012388 Ry

     total magnetization       =     5.85 Bohr mag/cell
     absolute magnetization    =     6.20 Bohr mag/cell

     iteration #  9     ecut=    50.00 Ry     beta=0.70
     Davidson diagonalization with overlap
     ethr =  3.87E-07,  avg # of iterations =  2.1

     negative rho (up, down):  0.000E+00 1.037E-03

     Magnetic moment per site:
     atom:    1    charge:   14.7788    magn:    3.0006    constr:    0.0000
     atom:    2    charge:   14.7788    magn:    3.0006    constr:    0.0000

     total cpu time spent up to now is       65.4 secs

     total energy              =    -658.39971016 Ry
     Harris-Foulkes estimate   =    -658.39943537 Ry
     estimated scf accuracy    <       0.00045574 Ry

     total magnetization       =     5.85 Bohr mag/cell
     absolute magnetization    =     6.20 Bohr mag/cell

     iteration # 10     ecut=    50.00 Ry     beta=0.70
     Davidson diagonalization with overlap
     ethr =  3.87E-07,  avg # of iterations =  2.6

     negative rho (up, down):  0.000E+00 1.032E-03

     Magnetic moment per site:
     atom:    1    charge:   14.7791    magn:    2.9951    constr:    0.0000
     atom:    2    charge:   14.7791    magn:    2.9951    constr:    0.0000

     total cpu time spent up to now is       72.2 secs

     total energy              =    -658.39985031 Ry
     Harris-Foulkes estimate   =    -658.39980556 Ry
     estimated scf accuracy    <       0.00007432 Ry

     total magnetization       =     5.84 Bohr mag/cell
     absolute magnetization    =     6.18 Bohr mag/cell

     iteration # 11     ecut=    50.00 Ry     beta=0.70
     Davidson diagonalization with overlap
     ethr =  2.32E-07,  avg # of iterations =  2.1

     negative rho (up, down):  0.000E+00 1.025E-03

     Magnetic moment per site:
     atom:    1    charge:   14.7795    magn:    2.9890    constr:    0.0000
     atom:    2    charge:   14.7795    magn:    2.9890    constr:    0.0000

     total cpu time spent up to now is       78.7 secs

     total energy              =    -658.39988544 Ry
     Harris-Foulkes estimate   =    -658.39986690 Ry
     estimated scf accuracy    <       0.00003651 Ry

     total magnetization       =     5.83 Bohr mag/cell
     absolute magnetization    =     6.17 Bohr mag/cell

     iteration # 12     ecut=    50.00 Ry     beta=0.70
     Davidson diagonalization with overlap
     ethr =  1.14E-07,  avg # of iterations =  2.7

     negative rho (up, down):  0.000E+00 1.014E-03

     Magnetic moment per site:
     atom:    1    charge:   14.7804    magn:    2.9778    constr:    0.0000
     atom:    2    charge:   14.7804    magn:    2.9778    constr:    0.0000

     total cpu time spent up to now is       85.3 secs

     total energy              =    -658.39984253 Ry
     Harris-Foulkes estimate   =    -658.39989832 Ry
     estimated scf accuracy    <       0.00000738 Ry

     total magnetization       =     5.82 Bohr mag/cell
     absolute magnetization    =     6.16 Bohr mag/cell

     iteration # 13     ecut=    50.00 Ry     beta=0.70
     Davidson diagonalization with overlap
     ethr =  2.31E-08,  avg # of iterations =  4.0

     negative rho (up, down):  0.000E+00 1.017E-03

     Magnetic moment per site:
     atom:    1    charge:   14.7801    magn:    2.9798    constr:    0.0000
     atom:    2    charge:   14.7801    magn:    2.9798    constr:    0.0000

     total cpu time spent up to now is       93.4 secs

     total energy              =    -658.39991109 Ry
     Harris-Foulkes estimate   =    -658.39986544 Ry
     estimated scf accuracy    <       0.00001173 Ry

     total magnetization       =     5.81 Bohr mag/cell
     absolute magnetization    =     6.15 Bohr mag/cell

     iteration # 14     ecut=    50.00 Ry     beta=0.70
     Davidson diagonalization with overlap
     ethr =  2.31E-08,  avg # of iterations =  1.7

     negative rho (up, down):  0.000E+00 1.018E-03

     Magnetic moment per site:
     atom:    1    charge:   14.7800    magn:    2.9810    constr:    0.0000
     atom:    2    charge:   14.7800    magn:    2.9810    constr:    0.0000

     total cpu time spent up to now is       99.2 secs

     total energy              =    -658.39991828 Ry
     Harris-Foulkes estimate   =    -658.39991168 Ry
     estimated scf accuracy    <       0.00000144 Ry

     total magnetization       =     5.81 Bohr mag/cell
     absolute magnetization    =     6.15 Bohr mag/cell

     iteration # 15     ecut=    50.00 Ry     beta=0.70
     Davidson diagonalization with overlap
     ethr =  4.48E-09,  avg # of iterations =  2.1

     negative rho (up, down):  0.000E+00 1.018E-03

     Magnetic moment per site:
     atom:    1    charge:   14.7800    magn:    2.9806    constr:    0.0000
     atom:    2    charge:   14.7800    magn:    2.9806    constr:    0.0000

     total cpu time spent up to now is      105.2 secs

     total energy              =    -658.39991851 Ry
     Harris-Foulkes estimate   =    -658.39991843 Ry
     estimated scf accuracy    <       0.00000002 Ry

     total magnetization       =     5.81 Bohr mag/cell
     absolute magnetization    =     6.15 Bohr mag/cell

     iteration # 16     ecut=    50.00 Ry     beta=0.70
     Davidson diagonalization with overlap
     ethr =  5.77E-11,  avg # of iterations =  4.1

     negative rho (up, down):  0.000E+00 1.018E-03

     Magnetic moment per site:
     atom:    1    charge:   14.7800    magn:    2.9805    constr:    0.0000
     atom:    2    charge:   14.7800    magn:    2.9805    constr:    0.0000

     total cpu time spent up to now is      114.3 secs

     total energy              =    -658.39991866 Ry
     Harris-Foulkes estimate   =    -658.39991858 Ry
     estimated scf accuracy    <       0.00000010 Ry

     total magnetization       =     5.81 Bohr mag/cell
     absolute magnetization    =     6.15 Bohr mag/cell

     iteration # 17     ecut=    50.00 Ry     beta=0.70
     Davidson diagonalization with overlap
     ethr =  5.77E-11,  avg # of iterations =  2.6

     negative rho (up, down):  0.000E+00 1.018E-03

     Magnetic moment per site:
     atom:    1    charge:   14.7800    magn:    2.9809    constr:    0.0000
     atom:    2    charge:   14.7800    magn:    2.9809    constr:    0.0000

     total cpu time spent up to now is      121.2 secs

     total energy              =    -658.39991889 Ry
     Harris-Foulkes estimate   =    -658.39991867 Ry
     estimated scf accuracy    <       0.00000013 Ry

     total magnetization       =     5.81 Bohr mag/cell
     absolute magnetization    =     6.15 Bohr mag/cell

     iteration # 18     ecut=    50.00 Ry     beta=0.70
     Davidson diagonalization with overlap
     ethr =  5.77E-11,  avg # of iterations =  2.5

     negative rho (up, down):  0.000E+00 1.018E-03

     Magnetic moment per site:
     atom:    1    charge:   14.7800    magn:    2.9810    constr:    0.0000
     atom:    2    charge:   14.7800    magn:    2.9810    constr:    0.0000

     total cpu time spent up to now is      128.4 secs

     End of self-consistent calculation

 ------ SPIN UP ------------


          k = 0.0000 0.0000 0.0000 (  1485 PWs)   bands (ev):

   -78.1167 -78.1100 -44.1905 -44.1905 -44.1842 -44.1842 -44.0676 -44.0125
     3.7463   6.7748   8.0100   8.0100   8.1236   8.1236   8.1793   8.1793
     8.3007   8.6022   8.6022   9.9359

          k = 0.0000 0.0000 0.1437 (  1467 PWs)   bands (ev):

   -78.1152 -78.1110 -44.1893 -44.1893 -44.1844 -44.1844 -44.0606 -44.0202
     4.1372   6.4119   7.9574   7.9574   8.0636   8.0636   8.2511   8.3116
     8.3116   8.5851   8.5851   8.7388

          k = 0.0000 0.0000-0.2874 (  1450 PWs)   bands (ev):

   -78.1129 -78.1129 -44.1866 -44.1866 -44.1866 -44.1866 -44.0404 -44.0404
     5.2115   5.2115   7.9710   7.9710   7.9710   7.9710   8.2160   8.2160
     8.4891   8.4891   8.4891   8.4891

          k = 0.0000 0.1443 0.0000 (  1461 PWs)   bands (ev):

   -78.1148 -78.1090 -44.2001 -44.1934 -44.1932 -44.1855 -44.0647 -44.0129
     4.1465   7.0254   7.8914   7.9532   8.0503   8.1118   8.1530   8.1907
     8.2555   8.4287   8.6193  10.8685

          k = 0.0000 0.1443 0.1437 (  1462 PWs)   bands (ev):

   -78.1138 -78.1100 -44.1996 -44.1947 -44.1923 -44.1866 -44.0575 -44.0200
     4.5254   6.6983   7.8137   7.8744   8.0435   8.0713   8.1755   8.1782
     8.3191   8.4914   8.5981   9.4969

          k = 0.0000 0.1443-0.2874 (  1450 PWs)   bands (ev):

   -78.1117 -78.1117 -44.1972 -44.1972 -44.1891 -44.1891 -44.0387 -44.0387
     5.5607   5.5607   7.8193   7.8193   8.0738   8.0738   8.0891   8.0891
     8.4953   8.4953   8.7458   8.7458

          k = 0.0000 0.2887 0.0000 (  1459 PWs)   bands (ev):

   -78.1116 -78.1069 -44.2244 -44.2175 -44.2004 -44.1906 -44.0568 -44.0148
     5.2525   7.2902   7.3568   7.8362   7.9704   7.9718   8.0800   8.5187
     8.5889   8.6399   8.7710  12.6075

          k = 0.0000 0.2887 0.1437 (  1454 PWs)   bands (ev):

   -78.1109 -78.1075 -44.2235 -44.2186 -44.1987 -44.1921 -44.0505 -44.0206
     5.5624   7.0420   7.4516   7.7280   8.0363   8.0852   8.1243   8.4292
     8.5653   8.6777   8.7820  10.4656

          k = 0.0000 0.2887-0.2874 (  1456 PWs)   bands (ev):

   -78.1092 -78.1092 -44.2211 -44.2211 -44.1957 -44.1957 -44.0353 -44.0353
     6.3328   6.3328   7.6201   7.6201   8.1577   8.1577   8.2120   8.2120
     8.6375   8.6375   9.1260   9.1260

          k = 0.0000 0.4330 0.0000 (  1470 PWs)   bands (ev):

   -78.1084 -78.1053 -44.2483 -44.2414 -44.2070 -44.1959 -44.0474 -44.0196
     6.4858   6.9855   7.0813   7.7911   7.8455   8.0933   8.5412   8.6452
     8.9121   8.9547   9.4900  14.0783

          k = 0.0000 0.4330 0.1437 (  1467 PWs)   bands (ev):

   -78.1080 -78.1056 -44.2481 -44.2429 -44.2053 -44.1978 -44.0423 -44.0232
     6.4847   6.9200   7.2682   7.5142   7.9470   8.5029   8.5254   8.7995
     8.9244   8.9629   9.3581  11.8206

          k = 0.0000 0.4330-0.2874 (  1464 PWs)   bands (ev):

   -78.1068 -78.1068 -44.2456 -44.2456 -44.2015 -44.2015 -44.0323 -44.0323
     6.6488   6.6488   7.4381   7.4381   8.2082   8.2082   8.9503   8.9503
     8.9826   8.9826   9.9028   9.9028

          k = 0.0000-0.5774 0.0000 (  1484 PWs)   bands (ev):

   -78.1072 -78.1048 -44.2589 -44.2514 -44.2098 -44.1989 -44.0416 -44.0233
     6.8341   6.8662   6.9346   7.7177   7.7968   8.5760   8.6447   8.6795
     9.0768   9.1257  10.9424  12.0257

          k = 0.0000-0.5774 0.1437 (  1468 PWs)   bands (ev):

   -78.1066 -78.1049 -44.2578 -44.2526 -44.2077 -44.2002 -44.0381 -44.0251
     6.5956   6.8879   7.2383   7.4197   7.9081   8.5046   8.7210   9.0860
     9.1194   9.1817  10.9115  11.9080

          k = 0.0000-0.5774-0.2874 (  1480 PWs)   bands (ev):

   -78.1059 -78.1059 -44.2561 -44.2561 -44.2044 -44.2044 -44.0311 -44.0311
     6.6551   6.6551   7.3602   7.3602   8.1925   8.1925   9.1038   9.1038
     9.2063   9.2063  11.3491  11.3491

          k = 0.1250 0.2165 0.0000 (  1464 PWs)   bands (ev):

   -78.1126 -78.1076 -44.2154 -44.2112 -44.1977 -44.1910 -44.0598 -44.0144
     4.9067   7.3836   7.5261   7.7027   7.8949   7.9675   8.1319   8.4358
     8.4777   8.6140   8.7018  12.0965

          k = 0.1250 0.2165 0.1437 (  1455 PWs)   bands (ev):

   -78.1116 -78.1083 -44.2146 -44.2116 -44.1972 -44.1922 -44.0527 -44.0204
     5.2502   7.0723   7.5594   7.7051   7.9371   8.0065   8.1027   8.3505
     8.5429   8.6302   8.7232  10.1950

          k = 0.1250 0.2165-0.2874 (  1458 PWs)   bands (ev):

   -78.1100 -78.1100 -44.2131 -44.2131 -44.1950 -44.1950 -44.0361 -44.0361
     6.1499   6.1499   7.6809   7.6809   7.9714   7.9714   8.1934   8.1934
     8.6365   8.6365   9.0227   9.0227

          k = 0.1250 0.3608 0.0000 (  1464 PWs)   bands (ev):

   -78.1094 -78.1056 -44.2371 -44.2323 -44.2070 -44.1989 -44.0504 -44.0177
     6.1861   7.1325   7.3368   7.7313   7.7316   7.9730   8.1589   8.5984
     8.7200   8.9617   9.2884  13.9809

          k = 0.1250 0.3608 0.1437 (  1466 PWs)   bands (ev):

   -78.1089 -78.1061 -44.2365 -44.2333 -44.2062 -44.2003 -44.0450 -44.0222
     6.3546   7.0413   7.4065   7.6305   7.9545   8.0244   8.1703   8.4453
     8.8215   9.0281   9.2618  11.3689

          k = 0.1250 0.3608-0.2874 (  1460 PWs)   bands (ev):

   -78.1075 -78.1075 -44.2349 -44.2349 -44.2034 -44.2034 -44.0330 -44.0330
     6.7189   6.7189   7.5760   7.5760   8.0800   8.0800   8.2462   8.2462
     9.1027   9.1027   9.6330   9.6330

          k = 0.1250 0.5052 0.0000 (  1465 PWs)   bands (ev):

   -78.1067 -78.1047 -44.2531 -44.2462 -44.2145 -44.2041 -44.0413 -44.0226
     6.9359   6.9525   7.1221   7.6898   7.7905   8.1635   8.4711   8.5870
     9.0181   9.2183  10.5639  13.3515

          k = 0.1250 0.5052 0.1437 (  1461 PWs)   bands (ev):

   -78.1064 -78.1049 -44.2524 -44.2476 -44.2128 -44.2053 -44.0379 -44.0249
     6.7298   7.0424   7.3272   7.4729   7.8054   8.3801   8.5503   8.5634
     9.0573   9.2989  10.6534  12.7790

          k = 0.1250 0.5052-0.2874 (  1466 PWs)   bands (ev):

   -78.1057 -78.1057 -44.2504 -44.2504 -44.2092 -44.2092 -44.0311 -44.0311
     6.7992   6.7992   7.4656   7.4656   8.0498   8.0498   8.6824   8.6824
     9.2606   9.2606  11.3477  11.3477

          k = 0.2500 0.4330 0.0000 (  1466 PWs)   bands (ev):

   -78.1067 -78.1047 -44.2441 -44.2418 -44.2201 -44.2128 -44.0415 -44.0224
     7.0230   7.2015   7.4620   7.5633   7.6046   7.8295   8.2466   8.5234
     8.9231   9.2709  10.4513  15.2379

          k = 0.2500 0.4330 0.1437 (  1469 PWs)   bands (ev):

   -78.1064 -78.1051 -44.2435 -44.2423 -44.2195 -44.2141 -44.0382 -44.0247
     7.0189   7.0781   7.4608   7.6597   7.7568   7.8991   8.2375   8.3835
     9.0322   9.3133  10.5979  13.0992

          k = 0.2500 0.4330-0.2874 (  1484 PWs)   bands (ev):

   -78.1060 -78.1060 -44.2432 -44.2432 -44.2177 -44.2177 -44.0310 -44.0310
     7.0087   7.0087   7.5999   7.5999   7.9006   7.9006   8.2449   8.2449
     9.2803   9.2803  11.3473  11.3473

          k = 0.2500 0.5774 0.0000 (  1468 PWs)   bands (ev):

   -78.1054 -78.1046 -44.2471 -44.2399 -44.2294 -44.2202 -44.0348 -44.0273
     7.0018   7.3962   7.4044   7.6338   7.6754   7.8092   8.3266   8.4913
     9.1024   9.2543  12.4901  12.9085

          k = 0.2500 0.5774 0.1437 (  1470 PWs)   bands (ev):

   -78.1053 -78.1047 -44.2462 -44.2410 -44.2285 -44.2218 -44.0332 -44.0278
     7.0180   7.3750   7.4495   7.4718   7.7038   7.9761   8.3325   8.3756
     9.1678   9.3011  12.7982  13.0663

          k = 0.2500 0.5774-0.2874 (  1470 PWs)   bands (ev):

   -78.1050 -78.1050 -44.2438 -44.2438 -44.2255 -44.2255 -44.0298 -44.0298
     7.1232   7.1232   7.5494   7.5494   7.8259   7.8259   8.3329   8.3329
     9.2958   9.2958  13.3332  13.3332

 ------ SPIN DOWN ----------


          k = 0.0000 0.0000 0.0000 (  1485 PWs)   bands (ev):

   -74.7152 -74.7079 -40.8315 -40.8315 -40.8242 -40.8242 -40.8076 -40.7416
     4.0139   7.7348   9.9220  10.0495  10.6773  10.6773  10.8365  10.8365
    11.9183  11.9183  12.4867  12.4867

          k = 0.0000 0.0000 0.1437 (  1467 PWs)   bands (ev):

   -74.7137 -74.7090 -40.8303 -40.8303 -40.8247 -40.8247 -40.7986 -40.7510
     4.4065   6.9873   9.6758   9.8373  10.6762  10.6762  10.7916  10.7916
    12.0281  12.0281  12.4278  12.4278

          k = 0.0000 0.0000-0.2874 (  1450 PWs)   bands (ev):

   -74.7112 -74.7112 -40.8273 -40.8273 -40.8273 -40.8273 -40.7748 -40.7748
     5.5117   5.5117   9.6653   9.6653  10.7120  10.7120  10.7120  10.7120
    12.2523  12.2523  12.2523  12.2523

          k = 0.0000 0.1443 0.0000 (  1461 PWs)   bands (ev):

   -74.7133 -74.7068 -40.8430 -40.8353 -40.8349 -40.8260 -40.8040 -40.7422
     4.4161   8.0416   9.8999   9.9768  10.5594  10.7243  10.8513  10.9974
    11.7561  11.8144  12.5158  13.0317

          k = 0.0000 0.1443 0.1437 (  1462 PWs)   bands (ev):

   -74.7123 -74.7079 -40.8427 -40.8369 -40.8337 -40.8273 -40.7949 -40.7508
     4.8017   7.3340   9.6316   9.9051  10.5275  10.6883  10.8452  10.9514
    11.8994  11.9454  12.4347  12.5657

          k = 0.0000 0.1443-0.2874 (  1450 PWs)   bands (ev):

   -74.7100 -74.7100 -40.8400 -40.8400 -40.8302 -40.8302 -40.7726 -40.7726
     5.8894   5.8894   9.7030   9.7030  10.5698  10.5698  10.8745  10.8745
    12.2129  12.2129  12.2174  12.2174

          k = 0.0000 0.2887 0.0000 (  1459 PWs)   bands (ev):

   -74.7097 -74.7045 -40.8717 -40.8638 -40.8431 -40.8319 -40.7945 -40.7448
     5.5612   8.7304   9.7020   9.9350  10.3048  10.7749  11.3065  11.4088
    11.4171  11.6019  12.5498  14.3205

          k = 0.0000 0.2887 0.1437 (  1454 PWs)   bands (ev):

   -74.7089 -74.7051 -40.8712 -40.8655 -40.8413 -40.8337 -40.7865 -40.7513
     5.9211   8.2081   9.5469   9.9900  10.2234  10.5967  11.2752  11.3589
    11.6567  11.7863  12.4249  12.8625

          k = 0.0000 0.2887-0.2874 (  1456 PWs)   bands (ev):

   -74.7070 -74.7070 -40.8689 -40.8689 -40.8377 -40.8377 -40.7682 -40.7682
     6.9289   6.9289   9.7690   9.7690  10.3183  10.3183  11.2906  11.2906
    12.1212  12.1212  12.1515  12.1515

          k = 0.0000 0.4330 0.0000 (  1470 PWs)   bands (ev):

   -74.7060 -74.7024 -40.9001 -40.8919 -40.8510 -40.8382 -40.7830 -40.7502
     7.1979   9.0327   9.6372   9.7715  10.2233  11.0673  11.3974  11.4172
    11.8182  11.8681  12.5591  14.7611

          k = 0.0000 0.4330 0.1437 (  1467 PWs)   bands (ev):

   -74.7055 -74.7028 -40.9002 -40.8941 -40.8490 -40.8402 -40.7768 -40.7542
     7.4706   8.8741   9.4797   9.9384  10.1717  10.8840  11.5268  11.6072
    11.8359  11.8634  12.3886  13.2808

          k = 0.0000 0.4330-0.2874 (  1464 PWs)   bands (ev):

   -74.7041 -74.7041 -40.8978 -40.8978 -40.8446 -40.8446 -40.7645 -40.7645
     8.1713   8.1713   9.6999   9.6999  10.4896  10.4896  11.7326  11.7326
    12.0513  12.0513  12.1562  12.1562

          k = 0.0000-0.5774 0.0000 (  1484 PWs)   bands (ev):

   -74.7044 -74.7018 -40.9124 -40.9037 -40.8542 -40.8415 -40.7762 -40.7545
     8.3471   8.8650   9.5990   9.6453  10.3101  10.9099  11.3458  12.0346
    12.0940  12.3031  12.5588  13.3676

          k = 0.0000-0.5774 0.1437 (  1468 PWs)   bands (ev):

   -74.7038 -74.7020 -40.9118 -40.9056 -40.8519 -40.8431 -40.7716 -40.7564
     8.4427   8.8418   9.5324   9.7593  10.3401  11.2782  11.4934  11.9586
    12.0376  12.0881  12.3520  13.0907

          k = 0.0000-0.5774-0.2874 (  1480 PWs)   bands (ev):

   -74.7030 -74.7030 -40.9100 -40.9100 -40.8478 -40.8478 -40.7631 -40.7631
     8.6604   8.6604   9.6572   9.6572  10.9129  10.9129  11.8735  11.8735
    12.0820  12.0820  12.3101  12.3101

          k = 0.1250 0.2165 0.0000 (  1464 PWs)   bands (ev):

   -74.7108 -74.7052 -40.8610 -40.8564 -40.8401 -40.8325 -40.7978 -40.7441
     5.1911   8.5587   9.7491   9.9534  10.4999  10.5265  11.1824  11.3197
    11.4638  11.7212  12.5092  13.9375

          k = 0.1250 0.2165 0.1437 (  1455 PWs)   bands (ev):

   -74.7099 -74.7060 -40.8606 -40.8571 -40.8395 -40.8338 -40.7890 -40.7511
     5.5620   7.9597   9.5737   9.9762  10.3225  10.5191  11.1547  11.2609
    11.7221  11.8357  12.3993  12.7981

          k = 0.1250 0.2165-0.2874 (  1458 PWs)   bands (ev):

   -74.7079 -74.7079 -40.8593 -40.8593 -40.8370 -40.8370 -40.7693 -40.7693
     6.6039   6.6039   9.7681   9.7681  10.3357  10.3357  11.1848  11.1848
    12.1247  12.1247  12.1909  12.1909

          k = 0.1250 0.3608 0.0000 (  1464 PWs)   bands (ev):

   -74.7071 -74.7029 -40.8867 -40.8812 -40.8511 -40.8416 -40.7867 -40.7482
     6.6101   9.1295   9.6834   9.7428  10.3038  10.8386  11.1484  11.4765
    11.6409  11.8577  12.4882  14.8770

          k = 0.1250 0.3608 0.1437 (  1466 PWs)   bands (ev):

   -74.7066 -74.7035 -40.8866 -40.8827 -40.8502 -40.8433 -40.7799 -40.7530
     6.9346   8.8511   9.5116   9.8722  10.1910  10.5471  11.3825  11.5382
    11.7881  11.8586  12.3590  13.2688

          k = 0.1250 0.3608-0.2874 (  1460 PWs)   bands (ev):

   -74.7049 -74.7049 -40.8851 -40.8851 -40.8469 -40.8469 -40.7654 -40.7654
     7.8165   7.8165   9.8020   9.8020  10.1675  10.1675  11.5804  11.5804
    12.0538  12.0538  12.2608  12.2608

          k = 0.1250 0.5052 0.0000 (  1465 PWs)   bands (ev):

   -74.7041 -74.7017 -40.9057 -40.8976 -40.8598 -40.8477 -40.7761 -40.7540
     8.1798   9.1046   9.5740   9.7228  10.3739  10.9391  11.2532  11.4887
    11.8516  12.4715  12.5157  14.4047

          k = 0.1250 0.5052 0.1437 (  1461 PWs)   bands (ev):

   -74.7037 -74.7020 -40.9053 -40.8996 -40.8581 -40.8493 -40.7715 -40.7561
     8.3586   9.0856   9.4989   9.8876  10.2505  10.8219  11.3953  11.6084
    11.9264  12.1424  12.6210  13.8309

          k = 0.1250 0.5052-0.2874 (  1466 PWs)   bands (ev):

   -74.7029 -74.7029 -40.9034 -40.9034 -40.8539 -40.8539 -40.7629 -40.7629
     8.7650   8.7650   9.7321   9.7321  10.4613  10.4613  11.6704  11.6704
    11.9379  11.9379  12.9102  12.9102

          k = 0.2500 0.4330 0.0000 (  1466 PWs)   bands (ev):

   -74.7040 -74.7018 -40.8950 -40.8921 -40.8664 -40.8580 -40.7763 -40.7538
     8.0609   9.3825   9.4726   9.8131  10.5454  10.9379  10.9619  11.1821
    11.7457  12.3812  12.6234  15.9494

          k = 0.2500 0.4330 0.1437 (  1469 PWs)   bands (ev):

   -74.7037 -74.7022 -40.8948 -40.8932 -40.8659 -40.8597 -40.7716 -40.7559
     8.3036   9.4752   9.5817   9.5958  10.4140  10.4540  11.1206  11.4825
    11.9409  12.0336  12.7851  14.4300

          k = 0.2500 0.4330-0.2874 (  1484 PWs)   bands (ev):

   -74.7031 -74.7031 -40.8946 -40.8946 -40.8638 -40.8638 -40.7627 -40.7627
     8.9107   8.9107   9.8077   9.8077  10.0683  10.0683  11.5001  11.5001
    11.9408  11.9408  13.1998  13.1998

          k = 0.2500 0.5774 0.0000 (  1468 PWs)   bands (ev):

   -74.7025 -74.7015 -40.8985 -40.8900 -40.8773 -40.8667 -40.7685 -40.7595
     8.9700   9.3112   9.3682   9.9393  10.6800  10.8870  10.9545  11.3597
    11.4824  12.3354  13.8238  14.2629

          k = 0.2500 0.5774 0.1437 (  1470 PWs)   bands (ev):

   -74.7024 -74.7017 -40.8976 -40.8918 -40.8766 -40.8687 -40.7658 -40.7595
     9.1283   9.4015   9.4745   9.9385  10.3723  10.5123  11.0841  11.5680
    11.7059  11.9987  14.1054  14.3543

          k = 0.2500 0.5774-0.2874 (  1470 PWs)   bands (ev):

   -74.7021 -74.7021 -40.8953 -40.8953 -40.8732 -40.8732 -40.7613 -40.7613
     9.3976   9.3976   9.8777   9.8777  10.0491  10.0491  11.4489  11.4489
    11.7874  11.7874  14.4681  14.4681

     the Fermi energy is    10.5023 ev

!    total energy              =    -658.39991891 Ry
     Harris-Foulkes estimate   =    -658.39991890 Ry
     estimated scf accuracy    <          5.0E-09 Ry

     total all-electron energy =     -5090.992990 Ry

     The total energy is the sum of the following terms:

     one-electron contribution =    -302.05035235 Ry
     hartree contribution      =     162.78775031 Ry
     xc contribution           =     -69.39809998 Ry
     ewald contribution        =    -297.46187674 Ry
     one-center paw contrib.   =    -152.27705315 Ry
     smearing contrib. (-TS)   =      -0.00028699 Ry

     total magnetization       =     5.81 Bohr mag/cell
     absolute magnetization    =     6.15 Bohr mag/cell

     convergence has been achieved in  18 iterations

     Forces acting on atoms (Ry/au):


     negative rho (up, down):  0.000E+00 1.018E-03
     atom    1 type  1   force =    -0.00000000   -0.00000000    0.00000000
     atom    2 type  1   force =     0.00000000    0.00000000    0.00000000

     Total force =     0.000000     Total SCF correction =     0.000000


     entering subroutine stress ...


     negative rho (up, down):  0.000E+00 1.018E-03
          total   stress  (Ry/bohr**3)                   (kbar)     P= -291.37
  -0.00210456   0.00000000   0.00000000       -309.59      0.00      0.00
   0.00000000  -0.00210456  -0.00000000          0.00   -309.59     -0.00
   0.00000000  -0.00000000  -0.00173305          0.00     -0.00   -254.94


     Writing output data file Fe_hcp.save

     init_run     :      4.44s CPU      4.48s WALL (       1 calls)
     electrons    :    130.02s CPU    123.55s WALL (       1 calls)
     forces       :      0.77s CPU      0.63s WALL (       1 calls)
     stress       :      2.23s CPU      2.31s WALL (       1 calls)

     Called by init_run:
     wfcinit      :      2.65s CPU      2.58s WALL (       1 calls)
     potinit      :      1.13s CPU      1.19s WALL (       1 calls)

     Called by electrons:
     c_bands      :     94.32s CPU     87.22s WALL (      18 calls)
     sum_band     :     15.81s CPU     15.60s WALL (      18 calls)
     v_of_rho     :      1.11s CPU      1.16s WALL (      19 calls)
     newd         :      1.43s CPU      1.53s WALL (      19 calls)
     mix_rho      :      0.19s CPU      0.24s WALL (      18 calls)

     Called by c_bands:
     init_us_2    :      1.34s CPU      1.37s WALL (    2340 calls)
     cegterg      :     90.50s CPU     83.31s WALL (    1080 calls)

     Called by *egterg:
     h_psi        :     71.86s CPU     69.97s WALL (    3872 calls)
     s_psi        :      3.32s CPU      1.92s WALL (    3872 calls)
     g_psi        :      0.48s CPU      0.49s WALL (    2732 calls)
     cdiaghg      :      3.75s CPU      3.82s WALL (    3812 calls)

     Called by h_psi:
     add_vuspsi   :      3.88s CPU      2.25s WALL (    3872 calls)

     General routines
     calbec       :      5.17s CPU      2.94s WALL (    5072 calls)
     fft          :      0.63s CPU      0.65s WALL (     623 calls)
     ffts         :      0.05s CPU      0.05s WALL (      74 calls)
     fftw         :     68.81s CPU     70.21s WALL (  134304 calls)
     interpolate  :      0.14s CPU      0.15s WALL (      74 calls)
     davcio       :      0.00s CPU      0.03s WALL (      60 calls)


     PAW routines
     PAW_pot      :     18.25s CPU     18.92s WALL (      19 calls)
     PAW_symme    :      0.02s CPU      0.02s WALL (      37 calls)

     PWSCF        :  2m17.96s CPU     2m11.59s WALL


   This run was terminated on:  20:38:49  11May2015            

=------------------------------------------------------------------------------=
   JOB DONE.
=------------------------------------------------------------------------------=
