
     Program PWSCF v.5.1.2 starts on 11May2015 at 21:34:39 

     This program is part of the open-source Quantum ESPRESSO suite
     for quantum simulation of materials; please cite
         "P. Giannozzi et al., J. Phys.:Condens. Matter 21 395502 (2009);
          URL http://www.quantum-espresso.org", 
     in publications or presentations arising from this work. More details at
     http://www.quantum-espresso.org/quote

     Serial version
     Reading input from Fe_HCP_5.45_173_9_5.pw.in

     Current dimensions of program PWSCF are:
     Max number of different atomic species (ntypx) = 10
     Max number of k-points (npk) =  40000
     Max angular momentum in pseudopotentials (lmaxx) =  3
               file Fe.pbe-spn-kjpaw_psl.0.2.1.UPF: wavefunction(s)  3D renormalized

     G-vector sticks info
     --------------------
     sticks:   dense  smooth     PW     G-vecs:    dense   smooth      PW
     Sum         511     421    121                16205    11587    2027

     Generating pointlists ...
     new r_m :   0.4125 (alat units)  2.2481 (a.u.) for type    1


     bravais-lattice index     =            4
     lattice parameter (alat)  =       5.4500  a.u.
     unit-cell volume          =     242.5304 (a.u.)^3
     number of atoms/cell      =            2
     number of atomic types    =            1
     number of electrons       =        32.00
     number of Kohn-Sham states=           20
     kinetic-energy cutoff     =      50.0000  Ry
     charge density cutoff     =     250.0000  Ry
     convergence threshold     =      1.0E-08
     mixing beta               =       0.7000
     number of iterations used =            8  plain     mixing
     Exchange-correlation      =  SLA  PW   PBX  PBC ( 1  4  3  4 0 0)

     celldm(1)=   5.450000  celldm(2)=   0.000000  celldm(3)=   1.730000
     celldm(4)=   0.000000  celldm(5)=   0.000000  celldm(6)=   0.000000

     crystal axes: (cart. coord. in units of alat)
               a(1) = (   1.000000   0.000000   0.000000 )  
               a(2) = (  -0.500000   0.866025   0.000000 )  
               a(3) = (   0.000000   0.000000   1.730000 )  

     reciprocal axes: (cart. coord. in units 2 pi/alat)
               b(1) = (  1.000000  0.577350 -0.000000 )  
               b(2) = (  0.000000  1.154701  0.000000 )  
               b(3) = (  0.000000 -0.000000  0.578035 )  


     PseudoPot. # 1 for Fe read from file:
     ./Fe.pbe-spn-kjpaw_psl.0.2.1.UPF
     MD5 check sum: a0a08122d52b112de96d1da1d7dd020f
     Pseudo is Projector augmented-wave + core cor, Zval = 16.0
     Generated using "atomic" code by A. Dal Corso  v.5.0.2 svn rev. 9415
     Shape of augmentation charge: PSQ
     Using radial grid of 1191 points,  6 beta functions with: 
                l(1) =   0
                l(2) =   0
                l(3) =   1
                l(4) =   1
                l(5) =   2
                l(6) =   2
     Q(r) pseudized with 0 coefficients 


     atomic species   valence    mass     pseudopotential
        Fe            16.00    55.85000     Fe( 1.00)

     Starting magnetic structure 
     atomic species   magnetization
        Fe           0.700

     24 Sym. Ops., with inversion, found (12 have fractional translation)



   Cartesian axes

     site n.     atom                  positions (alat units)
         1           Fe  tau(   1) = (  -0.0000000   0.5773503   0.4325000  )
         2           Fe  tau(   2) = (   0.5000000   0.2886751   1.2975000  )

     number of k points=    72  Marzari-Vanderbilt smearing, width (Ry)=  0.0250
                       cart. coord. in units 2pi/alat
        k(    1) = (   0.0000000   0.0000000   0.0000000), wk =   0.0024691
        k(    2) = (   0.0000000   0.0000000   0.1156069), wk =   0.0049383
        k(    3) = (   0.0000000   0.0000000   0.2312139), wk =   0.0049383
        k(    4) = (   0.0000000   0.1283001   0.0000000), wk =   0.0148148
        k(    5) = (   0.0000000   0.1283001   0.1156069), wk =   0.0296296
        k(    6) = (   0.0000000   0.1283001   0.2312139), wk =   0.0296296
        k(    7) = (   0.0000000   0.2566001   0.0000000), wk =   0.0148148
        k(    8) = (   0.0000000   0.2566001   0.1156069), wk =   0.0296296
        k(    9) = (   0.0000000   0.2566001   0.2312139), wk =   0.0296296
        k(   10) = (   0.0000000   0.3849002   0.0000000), wk =   0.0148148
        k(   11) = (   0.0000000   0.3849002   0.1156069), wk =   0.0296296
        k(   12) = (   0.0000000   0.3849002   0.2312139), wk =   0.0296296
        k(   13) = (   0.0000000   0.5132002   0.0000000), wk =   0.0148148
        k(   14) = (   0.0000000   0.5132002   0.1156069), wk =   0.0296296
        k(   15) = (   0.0000000   0.5132002   0.2312139), wk =   0.0296296
        k(   16) = (   0.1111111   0.1924501   0.0000000), wk =   0.0148148
        k(   17) = (   0.1111111   0.1924501   0.1156069), wk =   0.0296296
        k(   18) = (   0.1111111   0.1924501   0.2312139), wk =   0.0296296
        k(   19) = (   0.1111111   0.3207501   0.0000000), wk =   0.0296296
        k(   20) = (   0.1111111   0.3207501   0.1156069), wk =   0.0592593
        k(   21) = (   0.1111111   0.3207501   0.2312139), wk =   0.0592593
        k(   22) = (   0.1111111   0.4490502   0.0000000), wk =   0.0296296
        k(   23) = (   0.1111111   0.4490502   0.1156069), wk =   0.0592593
        k(   24) = (   0.1111111   0.4490502   0.2312139), wk =   0.0592593
        k(   25) = (   0.1111111   0.5773503   0.0000000), wk =   0.0148148
        k(   26) = (   0.1111111   0.5773503   0.1156069), wk =   0.0296296
        k(   27) = (   0.1111111   0.5773503   0.2312139), wk =   0.0296296
        k(   28) = (   0.2222222   0.3849002   0.0000000), wk =   0.0148148
        k(   29) = (   0.2222222   0.3849002   0.1156069), wk =   0.0296296
        k(   30) = (   0.2222222   0.3849002   0.2312139), wk =   0.0296296
        k(   31) = (   0.2222222   0.5132002   0.0000000), wk =   0.0296296
        k(   32) = (   0.2222222   0.5132002   0.1156069), wk =   0.0592593
        k(   33) = (   0.2222222   0.5132002   0.2312139), wk =   0.0592593
        k(   34) = (   0.3333333   0.5773503   0.0000000), wk =   0.0049383
        k(   35) = (   0.3333333   0.5773503   0.1156069), wk =   0.0098765
        k(   36) = (   0.3333333   0.5773503   0.2312139), wk =   0.0098765
        k(   37) = (   0.0000000   0.0000000   0.0000000), wk =   0.0024691
        k(   38) = (   0.0000000   0.0000000   0.1156069), wk =   0.0049383
        k(   39) = (   0.0000000   0.0000000   0.2312139), wk =   0.0049383
        k(   40) = (   0.0000000   0.1283001   0.0000000), wk =   0.0148148
        k(   41) = (   0.0000000   0.1283001   0.1156069), wk =   0.0296296
        k(   42) = (   0.0000000   0.1283001   0.2312139), wk =   0.0296296
        k(   43) = (   0.0000000   0.2566001   0.0000000), wk =   0.0148148
        k(   44) = (   0.0000000   0.2566001   0.1156069), wk =   0.0296296
        k(   45) = (   0.0000000   0.2566001   0.2312139), wk =   0.0296296
        k(   46) = (   0.0000000   0.3849002   0.0000000), wk =   0.0148148
        k(   47) = (   0.0000000   0.3849002   0.1156069), wk =   0.0296296
        k(   48) = (   0.0000000   0.3849002   0.2312139), wk =   0.0296296
        k(   49) = (   0.0000000   0.5132002   0.0000000), wk =   0.0148148
        k(   50) = (   0.0000000   0.5132002   0.1156069), wk =   0.0296296
        k(   51) = (   0.0000000   0.5132002   0.2312139), wk =   0.0296296
        k(   52) = (   0.1111111   0.1924501   0.0000000), wk =   0.0148148
        k(   53) = (   0.1111111   0.1924501   0.1156069), wk =   0.0296296
        k(   54) = (   0.1111111   0.1924501   0.2312139), wk =   0.0296296
        k(   55) = (   0.1111111   0.3207501   0.0000000), wk =   0.0296296
        k(   56) = (   0.1111111   0.3207501   0.1156069), wk =   0.0592593
        k(   57) = (   0.1111111   0.3207501   0.2312139), wk =   0.0592593
        k(   58) = (   0.1111111   0.4490502   0.0000000), wk =   0.0296296
        k(   59) = (   0.1111111   0.4490502   0.1156069), wk =   0.0592593
        k(   60) = (   0.1111111   0.4490502   0.2312139), wk =   0.0592593
        k(   61) = (   0.1111111   0.5773503   0.0000000), wk =   0.0148148
        k(   62) = (   0.1111111   0.5773503   0.1156069), wk =   0.0296296
        k(   63) = (   0.1111111   0.5773503   0.2312139), wk =   0.0296296
        k(   64) = (   0.2222222   0.3849002   0.0000000), wk =   0.0148148
        k(   65) = (   0.2222222   0.3849002   0.1156069), wk =   0.0296296
        k(   66) = (   0.2222222   0.3849002   0.2312139), wk =   0.0296296
        k(   67) = (   0.2222222   0.5132002   0.0000000), wk =   0.0296296
        k(   68) = (   0.2222222   0.5132002   0.1156069), wk =   0.0592593
        k(   69) = (   0.2222222   0.5132002   0.2312139), wk =   0.0592593
        k(   70) = (   0.3333333   0.5773503   0.0000000), wk =   0.0049383
        k(   71) = (   0.3333333   0.5773503   0.1156069), wk =   0.0098765
        k(   72) = (   0.3333333   0.5773503   0.2312139), wk =   0.0098765

     Dense  grid:    16205 G-vectors     FFT dimensions: (  27,  27,  48)

     Smooth grid:    11587 G-vectors     FFT dimensions: (  25,  25,  45)

     Largest allocated arrays     est. size (Mb)     dimensions
        Kohn-Sham Wavefunctions         0.45 Mb     (    1466,   20)
        NL pseudopotentials             0.81 Mb     (    1466,   36)
        Each V/rho on FFT grid          1.07 Mb     (   34992,   2)
        Each G-vector array             0.12 Mb     (   16205)
        G-vector shells                 0.01 Mb     (     843)
     Largest temporary arrays     est. size (Mb)     dimensions
        Auxiliary wavefunctions         1.79 Mb     (    1466,   80)
        Each subspace H/S matrix        0.10 Mb     (      80,   80)
        Each <psi_i|beta_j> matrix      0.01 Mb     (      36,   20)
        Arrays for rho mixing           4.27 Mb     (   34992,    8)

     Check: negative/imaginary core charge=   -0.000314    0.000000

     Initial potential from superposition of free atoms

     starting charge   31.99912, renormalised to   32.00000
     Starting wfc are   26 randomized atomic wfcs

     total cpu time spent up to now is        5.2 secs

     Self-consistent Calculation

     iteration #  1     ecut=    50.00 Ry     beta=0.70
     Davidson diagonalization with overlap
     ethr =  1.00E-02,  avg # of iterations =  2.0

     negative rho (up, down):  0.000E+00 1.111E-03

     Magnetic moment per site:
     atom:    1    charge:   14.6180    magn:    5.9512    constr:    0.0000
     atom:    2    charge:   14.6180    magn:    5.9512    constr:    0.0000

     total cpu time spent up to now is       12.9 secs

     total energy              =    -657.96055200 Ry
     Harris-Foulkes estimate   =    -656.24748419 Ry
     estimated scf accuracy    <       2.83439710 Ry

     total magnetization       =     8.00 Bohr mag/cell
     absolute magnetization    =     8.29 Bohr mag/cell

     iteration #  2     ecut=    50.00 Ry     beta=0.70
     Davidson diagonalization with overlap
     ethr =  8.86E-03,  avg # of iterations =  1.6

     negative rho (up, down):  0.000E+00 1.092E-03

     Magnetic moment per site:
     atom:    1    charge:   14.8419    magn:    4.0463    constr:    0.0000
     atom:    2    charge:   14.8419    magn:    4.0463    constr:    0.0000

     total cpu time spent up to now is       19.9 secs

     total energy              =    -658.12926621 Ry
     Harris-Foulkes estimate   =    -658.17457765 Ry
     estimated scf accuracy    <       0.83566575 Ry

     total magnetization       =     6.62 Bohr mag/cell
     absolute magnetization    =     6.89 Bohr mag/cell

     iteration #  3     ecut=    50.00 Ry     beta=0.70
     Davidson diagonalization with overlap
     ethr =  2.61E-03,  avg # of iterations =  3.1

     negative rho (up, down):  0.000E+00 1.281E-03

     Magnetic moment per site:
     atom:    1    charge:   14.7274    magn:    3.0771    constr:    0.0000
     atom:    2    charge:   14.7274    magn:    3.0771    constr:    0.0000

     total cpu time spent up to now is       28.1 secs

     total energy              =    -658.16333177 Ry
     Harris-Foulkes estimate   =    -658.64260006 Ry
     estimated scf accuracy    <       1.34336486 Ry

     total magnetization       =     6.73 Bohr mag/cell
     absolute magnetization    =     7.00 Bohr mag/cell

     iteration #  4     ecut=    50.00 Ry     beta=0.70
     Davidson diagonalization with overlap
     ethr =  2.61E-03,  avg # of iterations =  2.7

     negative rho (up, down):  0.000E+00 1.091E-03

     Magnetic moment per site:
     atom:    1    charge:   14.7814    magn:    3.0806    constr:    0.0000
     atom:    2    charge:   14.7814    magn:    3.0806    constr:    0.0000

     total cpu time spent up to now is       36.1 secs

     total energy              =    -658.39686729 Ry
     Harris-Foulkes estimate   =    -658.39703060 Ry
     estimated scf accuracy    <       0.00633893 Ry

     total magnetization       =     6.01 Bohr mag/cell
     absolute magnetization    =     6.35 Bohr mag/cell

     iteration #  5     ecut=    50.00 Ry     beta=0.70
     Davidson diagonalization with overlap
     ethr =  1.98E-05,  avg # of iterations =  3.4

     negative rho (up, down):  0.000E+00 1.092E-03

     Magnetic moment per site:
     atom:    1    charge:   14.7749    magn:    3.0797    constr:    0.0000
     atom:    2    charge:   14.7749    magn:    3.0797    constr:    0.0000

     total cpu time spent up to now is       46.8 secs

     total energy              =    -658.40351300 Ry
     Harris-Foulkes estimate   =    -658.40262463 Ry
     estimated scf accuracy    <       0.00076848 Ry

     total magnetization       =     6.03 Bohr mag/cell
     absolute magnetization    =     6.35 Bohr mag/cell

     iteration #  6     ecut=    50.00 Ry     beta=0.70
     Davidson diagonalization with overlap
     ethr =  2.40E-06,  avg # of iterations =  2.2

     negative rho (up, down):  0.000E+00 1.036E-03

     Magnetic moment per site:
     atom:    1    charge:   14.7752    magn:    3.0674    constr:    0.0000
     atom:    2    charge:   14.7752    magn:    3.0674    constr:    0.0000

     total cpu time spent up to now is       54.2 secs

     total energy              =    -658.40252307 Ry
     Harris-Foulkes estimate   =    -658.40373547 Ry
     estimated scf accuracy    <       0.00053786 Ry

     total magnetization       =     6.02 Bohr mag/cell
     absolute magnetization    =     6.33 Bohr mag/cell

     iteration #  7     ecut=    50.00 Ry     beta=0.70
     Davidson diagonalization with overlap
     ethr =  1.68E-06,  avg # of iterations =  3.1

     negative rho (up, down):  0.000E+00 1.071E-03

     Magnetic moment per site:
     atom:    1    charge:   14.7748    magn:    3.0752    constr:    0.0000
     atom:    2    charge:   14.7748    magn:    3.0752    constr:    0.0000

     total cpu time spent up to now is       63.9 secs

     total energy              =    -658.40459178 Ry
     Harris-Foulkes estimate   =    -658.40338953 Ry
     estimated scf accuracy    <       0.00030304 Ry

     total magnetization       =     6.02 Bohr mag/cell
     absolute magnetization    =     6.30 Bohr mag/cell

     iteration #  8     ecut=    50.00 Ry     beta=0.70
     Davidson diagonalization with overlap
     ethr =  9.47E-07,  avg # of iterations =  2.5

     negative rho (up, down):  0.000E+00 1.070E-03

     Magnetic moment per site:
     atom:    1    charge:   14.7753    magn:    3.0741    constr:    0.0000
     atom:    2    charge:   14.7753    magn:    3.0741    constr:    0.0000

     total cpu time spent up to now is       72.3 secs

     total energy              =    -658.40471866 Ry
     Harris-Foulkes estimate   =    -658.40471783 Ry
     estimated scf accuracy    <       0.00026765 Ry

     total magnetization       =     6.01 Bohr mag/cell
     absolute magnetization    =     6.31 Bohr mag/cell

     iteration #  9     ecut=    50.00 Ry     beta=0.70
     Davidson diagonalization with overlap
     ethr =  8.36E-07,  avg # of iterations =  1.0

     negative rho (up, down):  0.000E+00 1.061E-03

     Magnetic moment per site:
     atom:    1    charge:   14.7763    magn:    3.0668    constr:    0.0000
     atom:    2    charge:   14.7763    magn:    3.0668    constr:    0.0000

     total cpu time spent up to now is       79.0 secs

     total energy              =    -658.40490664 Ry
     Harris-Foulkes estimate   =    -658.40472705 Ry
     estimated scf accuracy    <       0.00026366 Ry

     total magnetization       =     6.01 Bohr mag/cell
     absolute magnetization    =     6.30 Bohr mag/cell

     iteration # 10     ecut=    50.00 Ry     beta=0.70
     Davidson diagonalization with overlap
     ethr =  8.24E-07,  avg # of iterations =  2.1

     negative rho (up, down):  0.000E+00 1.052E-03

     Magnetic moment per site:
     atom:    1    charge:   14.7766    magn:    3.0620    constr:    0.0000
     atom:    2    charge:   14.7766    magn:    3.0620    constr:    0.0000

     total cpu time spent up to now is       86.3 secs

     total energy              =    -658.40488382 Ry
     Harris-Foulkes estimate   =    -658.40496099 Ry
     estimated scf accuracy    <       0.00002227 Ry

     total magnetization       =     6.01 Bohr mag/cell
     absolute magnetization    =     6.29 Bohr mag/cell

     iteration # 11     ecut=    50.00 Ry     beta=0.70
     Davidson diagonalization with overlap
     ethr =  6.96E-08,  avg # of iterations =  3.8

     negative rho (up, down):  0.000E+00 1.056E-03

     Magnetic moment per site:
     atom:    1    charge:   14.7758    magn:    3.0645    constr:    0.0000
     atom:    2    charge:   14.7758    magn:    3.0645    constr:    0.0000

     total cpu time spent up to now is       95.5 secs

     total energy              =    -658.40499707 Ry
     Harris-Foulkes estimate   =    -658.40492291 Ry
     estimated scf accuracy    <       0.00001308 Ry

     total magnetization       =     6.01 Bohr mag/cell
     absolute magnetization    =     6.28 Bohr mag/cell

     iteration # 12     ecut=    50.00 Ry     beta=0.70
     Davidson diagonalization with overlap
     ethr =  4.09E-08,  avg # of iterations =  2.3

     negative rho (up, down):  0.000E+00 1.054E-03

     Magnetic moment per site:
     atom:    1    charge:   14.7761    magn:    3.0630    constr:    0.0000
     atom:    2    charge:   14.7761    magn:    3.0630    constr:    0.0000

     total cpu time spent up to now is      103.8 secs

     total energy              =    -658.40500199 Ry
     Harris-Foulkes estimate   =    -658.40500147 Ry
     estimated scf accuracy    <       0.00000650 Ry

     total magnetization       =     6.01 Bohr mag/cell
     absolute magnetization    =     6.29 Bohr mag/cell

     iteration # 13     ecut=    50.00 Ry     beta=0.70
     Davidson diagonalization with overlap
     ethr =  2.03E-08,  avg # of iterations =  2.3

     negative rho (up, down):  0.000E+00 1.053E-03

     Magnetic moment per site:
     atom:    1    charge:   14.7763    magn:    3.0621    constr:    0.0000
     atom:    2    charge:   14.7763    magn:    3.0621    constr:    0.0000

     total cpu time spent up to now is      111.2 secs

     total energy              =    -658.40500263 Ry
     Harris-Foulkes estimate   =    -658.40500420 Ry
     estimated scf accuracy    <       0.00000008 Ry

     total magnetization       =     6.01 Bohr mag/cell
     absolute magnetization    =     6.28 Bohr mag/cell

     iteration # 14     ecut=    50.00 Ry     beta=0.70
     Davidson diagonalization with overlap
     ethr =  2.37E-10,  avg # of iterations =  4.3

     negative rho (up, down):  0.000E+00 1.054E-03

     Magnetic moment per site:
     atom:    1    charge:   14.7763    magn:    3.0624    constr:    0.0000
     atom:    2    charge:   14.7763    magn:    3.0624    constr:    0.0000

     total cpu time spent up to now is      122.5 secs

     total energy              =    -658.40500600 Ry
     Harris-Foulkes estimate   =    -658.40500341 Ry
     estimated scf accuracy    <       0.00000078 Ry

     total magnetization       =     6.01 Bohr mag/cell
     absolute magnetization    =     6.28 Bohr mag/cell

     iteration # 15     ecut=    50.00 Ry     beta=0.70
     Davidson diagonalization with overlap
     ethr =  2.37E-10,  avg # of iterations =  3.2

     negative rho (up, down):  0.000E+00 1.054E-03

     Magnetic moment per site:
     atom:    1    charge:   14.7763    magn:    3.0624    constr:    0.0000
     atom:    2    charge:   14.7763    magn:    3.0624    constr:    0.0000

     total cpu time spent up to now is      131.3 secs

     End of self-consistent calculation

 ------ SPIN UP ------------


          k = 0.0000 0.0000 0.0000 (  1449 PWs)   bands (ev):

   -78.0390 -78.0322 -44.1051 -44.1051 -44.0971 -44.0971 -43.9972 -43.9376
     3.8235   6.8346   8.0888   8.0888   8.2067   8.2067   8.2960   8.2960
     8.3540   8.7368   8.7368  10.0790

          k = 0.0000 0.0000 0.1156 (  1449 PWs)   bands (ev):

   -78.0384 -78.0329 -44.1042 -44.1042 -44.0985 -44.0985 -43.9913 -43.9431
     4.0781   6.6343   8.0493   8.0493   8.1660   8.1660   8.3194   8.3896
     8.3896   8.7251   8.7251   9.1113

          k = 0.0000 0.0000 0.2312 (  1438 PWs)   bands (ev):

   -78.0364 -78.0345 -44.1021 -44.1021 -44.1001 -44.1001 -43.9771 -43.9583
     4.8070   5.8376   8.0352   8.0352   8.0860   8.0860   8.2609   8.3629
     8.5449   8.5449   8.6670   8.6670

          k = 0.0000 0.1283 0.0000 (  1441 PWs)   bands (ev):

   -78.0379 -78.0313 -44.1127 -44.1075 -44.1057 -44.0995 -43.9943 -43.9378
     4.1412   7.0347   7.9859   8.1330   8.1471   8.2034   8.2402   8.3121
     8.3532   8.4597   8.7520  10.8653

          k = 0.0000 0.1283 0.1156 (  1443 PWs)   bands (ev):

   -78.0371 -78.0321 -44.1126 -44.1067 -44.1066 -44.1000 -43.9893 -43.9432
     4.3907   6.8554   7.9637   8.0051   8.1301   8.1842   8.2603   8.3148
     8.3807   8.5180   8.7367   9.7979

          k = 0.0000 0.1283 0.2312 (  1439 PWs)   bands (ev):

   -78.0354 -78.0336 -44.1109 -44.1087 -44.1046 -44.1019 -43.9752 -43.9575
     5.1013   6.0980   7.9095   7.9472   8.1184   8.1647   8.1766   8.2201
     8.5420   8.6707   8.6843   8.9964

          k = 0.0000 0.2566 0.0000 (  1443 PWs)   bands (ev):

   -78.0351 -78.0297 -44.1338 -44.1264 -44.1137 -44.1035 -43.9876 -43.9398
     5.0407   7.3509   7.5879   7.9016   8.0880   8.1158   8.1408   8.5076
     8.5893   8.7317   8.7742  12.3494

          k = 0.0000 0.2566 0.1156 (  1440 PWs)   bands (ev):

   -78.0345 -78.0302 -44.1333 -44.1272 -44.1125 -44.1045 -43.9831 -43.9443
     5.2612   7.2200   7.5795   7.8659   8.0678   8.1465   8.2022   8.4996
     8.5656   8.7541   8.7700  10.7582

          k = 0.0000 0.2566 0.2312 (  1442 PWs)   bands (ev):

   -78.0332 -78.0315 -44.1317 -44.1295 -44.1104 -44.1070 -43.9707 -43.9559
     5.8708   6.6578   7.6762   7.7988   8.1151   8.1920   8.2370   8.3714
     8.6399   8.7250   8.9259   9.4947

          k = 0.0000 0.3849 0.0000 (  1458 PWs)   bands (ev):

   -78.0323 -78.0279 -44.1573 -44.1500 -44.1203 -44.1089 -43.9784 -43.9441
     6.2242   7.1869   7.2240   7.9677   7.9910   8.0042   8.4567   8.7840
     8.8787   8.9282   9.2423  14.1151

          k = 0.0000 0.3849 0.1156 (  1448 PWs)   bands (ev):

   -78.0316 -78.0283 -44.1565 -44.1506 -44.1192 -44.1098 -43.9749 -43.9470
     6.3180   7.0954   7.3482   7.7054   8.0532   8.3657   8.5301   8.6733
     8.8919   8.9512   9.1832  11.9470

          k = 0.0000 0.3849 0.2312 (  1439 PWs)   bands (ev):

   -78.0304 -78.0292 -44.1553 -44.1529 -44.1161 -44.1128 -43.9652 -43.9548
     6.5529   6.8531   7.5161   7.6174   8.2236   8.4542   8.6527   8.8474
     8.9218   8.9500   9.2022  10.2496

          k = 0.0000 0.5132 0.0000 (  1446 PWs)   bands (ev):

   -78.0295 -78.0271 -44.1724 -44.1647 -44.1244 -44.1118 -43.9706 -43.9476
     6.8450   6.9922   7.0429   7.8583   7.9153   8.5157   8.7142   8.7852
     9.1278   9.1765  10.3903  13.0056

          k = 0.0000 0.5132 0.1156 (  1450 PWs)   bands (ev):

   -78.0293 -78.0273 -44.1720 -44.1658 -44.1231 -44.1133 -43.9679 -43.9500
     6.6931   6.9963   7.2702   7.5949   7.9886   8.6812   8.6884   9.0562
     9.1348   9.1748  10.3452  12.6666

          k = 0.0000 0.5132 0.2312 (  1460 PWs)   bands (ev):

   -78.0289 -78.0280 -44.1710 -44.1685 -44.1203 -44.1167 -43.9616 -43.9550
     6.6773   6.8385   7.4369   7.4727   8.1883   8.4537   9.0203   9.1499
     9.1655   9.3678  10.5756  11.5674

          k = 0.1111 0.1925 0.0000 (  1428 PWs)   bands (ev):

   -78.0357 -78.0300 -44.1260 -44.1209 -44.1103 -44.1036 -43.9897 -43.9387
     4.7536   7.3465   7.7521   7.8248   8.0565   8.0681   8.2748   8.4569
     8.4619   8.6767   8.7537  11.9171

          k = 0.1111 0.1925 0.1156 (  1448 PWs)   bands (ev):

   -78.0353 -78.0309 -44.1259 -44.1217 -44.1106 -44.1047 -43.9852 -43.9439
     4.9867   7.1968   7.6851   7.8266   8.0678   8.1087   8.2290   8.4200
     8.5233   8.6913   8.7549  10.4923

          k = 0.1111 0.1925 0.2312 (  1443 PWs)   bands (ev):

   -78.0338 -78.0323 -44.1245 -44.1227 -44.1090 -44.1067 -43.9721 -43.9563
     5.6421   6.5301   7.7377   7.8209   8.0621   8.1044   8.2324   8.3256
     8.6286   8.7158   8.8579   9.3574

          k = 0.1111 0.3208 0.0000 (  1449 PWs)   bands (ev):

   -78.0331 -78.0285 -44.1463 -44.1414 -44.1188 -44.1104 -43.9820 -43.9422
     5.8449   7.3394   7.4443   7.7929   7.8982   8.1396   8.1416   8.7048
     8.7479   8.8786   9.1239  13.5120

          k = 0.1111 0.3208 0.1156 (  1451 PWs)   bands (ev):

   -78.0326 -78.0290 -44.1460 -44.1417 -44.1184 -44.1113 -43.9779 -43.9459
     6.0131   7.2380   7.4944   7.7574   8.0121   8.1261   8.1578   8.6011
     8.8019   8.9212   9.1138  11.5264

          k = 0.1111 0.3208 0.2312 (  1436 PWs)   bands (ev):

   -78.0313 -78.0299 -44.1446 -44.1428 -44.1163 -44.1137 -43.9670 -43.9550
     6.4411   6.9147   7.6192   7.7331   8.1077   8.1394   8.2431   8.4155
     8.9847   9.0705   9.1066   9.9719

          k = 0.1111 0.4491 0.0000 (  1455 PWs)   bands (ev):

   -78.0303 -78.0273 -44.1649 -44.1577 -44.1266 -44.1160 -43.9728 -43.9469
     6.8248   7.0864   7.2304   7.8192   7.9729   8.0655   8.4704   8.7409
     8.9983   9.2059   9.9508  14.4128

          k = 0.1111 0.4491 0.1156 (  1445 PWs)   bands (ev):

   -78.0298 -78.0274 -44.1643 -44.1587 -44.1256 -44.1167 -43.9697 -43.9486
     6.7562   7.1248   7.3409   7.6340   7.9629   8.3953   8.5059   8.6459
     9.0266   9.2619   9.9504  12.9104

          k = 0.1111 0.4491 0.2312 (  1448 PWs)   bands (ev):

   -78.0292 -78.0281 -44.1632 -44.1610 -44.1232 -44.1198 -43.9623 -43.9547
     6.7839   6.9551   7.5099   7.5992   8.0880   8.3502   8.6257   8.6719
     9.1864   9.3380  10.1994  11.2456

          k = 0.1111 0.5774 0.0000 (  1454 PWs)   bands (ev):

   -78.0289 -78.0270 -44.1721 -44.1646 -44.1295 -44.1179 -43.9677 -43.9502
     7.0042   7.0516   7.1167   7.8375   7.8578   8.4167   8.5847   8.7374
     9.1646   9.2924  11.3914  12.3291

          k = 0.1111 0.5774 0.1156 (  1448 PWs)   bands (ev):

   -78.0286 -78.0270 -44.1717 -44.1656 -44.1284 -44.1189 -43.9653 -43.9513
     6.8126   7.1087   7.3487   7.5854   7.8907   8.5913   8.6589   8.7175
     9.1724   9.3569  11.4561  12.3097

          k = 0.1111 0.5774 0.2312 (  1447 PWs)   bands (ev):

   -78.0281 -78.0275 -44.1702 -44.1679 -44.1256 -44.1218 -43.9605 -43.9549
     6.7926   6.9530   7.4880   7.5278   8.0444   8.3441   8.8472   8.8845
     9.2451   9.4032  11.7550  12.1638

          k = 0.2222 0.3849 0.0000 (  1466 PWs)   bands (ev):

   -78.0305 -78.0276 -44.1561 -44.1554 -44.1297 -44.1220 -43.9738 -43.9466
     6.8939   7.1667   7.5229   7.6294   7.7496   8.0293   8.2524   8.6917
     8.8816   9.2560   9.9056  14.8928

          k = 0.2222 0.3849 0.1156 (  1452 PWs)   bands (ev):

   -78.0301 -78.0276 -44.1557 -44.1551 -44.1291 -44.1229 -43.9703 -43.9487
     6.9066   7.1372   7.5329   7.6985   7.9156   7.9815   8.2448   8.5814
     8.9609   9.2947   9.9436  12.8646

          k = 0.2222 0.3849 0.2312 (  1442 PWs)   bands (ev):

   -78.0292 -78.0282 -44.1556 -44.1554 -44.1274 -44.1247 -43.9626 -43.9546
     6.9639   7.0584   7.6281   7.7474   7.9888   8.0799   8.2544   8.3683
     9.2131   9.3399  10.2082  11.1877

          k = 0.2222 0.5132 0.0000 (  1452 PWs)   bands (ev):

   -78.0284 -78.0269 -44.1640 -44.1575 -44.1396 -44.1301 -43.9655 -43.9518
     7.0918   7.3640   7.4171   7.7356   7.8613   7.8941   8.4163   8.6552
     9.0985   9.3440  11.4215  13.9212

          k = 0.2222 0.5132 0.1156 (  1455 PWs)   bands (ev):

   -78.0282 -78.0271 -44.1637 -44.1585 -44.1390 -44.1312 -43.9635 -43.9524
     7.0560   7.3882   7.4566   7.6383   7.7988   8.1052   8.4298   8.5600
     9.1480   9.3780  11.5606  13.8653

          k = 0.2222 0.5132 0.2312 (  1460 PWs)   bands (ev):

   -78.0279 -78.0275 -44.1624 -44.1604 -44.1372 -44.1342 -43.9593 -43.9551
     7.0719   7.2057   7.5897   7.7222   7.8204   8.0846   8.4574   8.4640
     9.2902   9.3967  12.0504  12.9898

          k = 0.3333 0.5774 0.0000 (  1434 PWs)   bands (ev):

   -78.0270 -78.0270 -44.1580 -44.1501 -44.1501 -44.1420 -43.9577 -43.9577
     7.1233   7.6209   7.6209   7.6746   7.7490   7.7490   8.3679   8.6137
     9.2459   9.2459  13.5636  13.7035

          k = 0.3333 0.5774 0.1156 (  1458 PWs)   bands (ev):

   -78.0273 -78.0273 -44.1570 -44.1511 -44.1511 -44.1442 -43.9574 -43.9574
     7.1964   7.5130   7.5130   7.6627   7.8563   7.8563   8.3485   8.5159
     9.2848   9.2848  13.8346  13.8346

          k = 0.3333 0.5774 0.2312 (  1464 PWs)   bands (ev):

   -78.0273 -78.0273 -44.1530 -44.1518 -44.1518 -44.1482 -43.9566 -43.9566
     7.3843   7.4214   7.4214   7.5795   7.9478   7.9478   8.3179   8.3588
     9.3500   9.3500  14.1794  14.1794

 ------ SPIN DOWN ----------


          k = 0.0000 0.0000 0.0000 (  1449 PWs)   bands (ev):

   -74.5564 -74.5489 -40.6669 -40.6669 -40.6580 -40.6580 -40.6562 -40.5851
     4.1367   7.9228  10.1344  10.2249  10.8521  10.8521  11.0179  11.0179
    12.0347  12.0347  12.6241  12.6241

          k = 0.0000 0.0000 0.1156 (  1449 PWs)   bands (ev):

   -74.5557 -74.5495 -40.6660 -40.6660 -40.6593 -40.6593 -40.6492 -40.5918
     4.3927   7.4259   9.9270  10.0753  10.8485  10.8485  10.9854  10.9854
    12.1121  12.1121  12.5865  12.5865

          k = 0.0000 0.0000 0.2312 (  1438 PWs)   bands (ev):

   -74.5536 -74.5514 -40.6637 -40.6637 -40.6613 -40.6613 -40.6319 -40.6098
     5.1350   6.2559   9.8132   9.9330  10.8622  10.8622  10.9160  10.9160
    12.2901  12.2901  12.4701  12.4701

          k = 0.0000 0.1283 0.0000 (  1441 PWs)   bands (ev):

   -74.5552 -74.5479 -40.6761 -40.6697 -40.6679 -40.6605 -40.6529 -40.5856
     4.4554   8.1670  10.0914  10.1763  10.7594  10.9253  10.9918  11.1467
    11.9032  11.9494  12.6495  13.0797

          k = 0.0000 0.1283 0.1156 (  1443 PWs)   bands (ev):

   -74.5544 -74.5487 -40.6761 -40.6691 -40.6688 -40.6611 -40.6464 -40.5919
     4.7088   7.6920   9.8587  10.1268  10.7342  10.9049  10.9849  11.1132
    11.9995  12.0392  12.5998  12.7656

          k = 0.0000 0.1283 0.2312 (  1439 PWs)   bands (ev):

   -74.5526 -74.5505 -40.6744 -40.6717 -40.6665 -40.6634 -40.6293 -40.6085
     5.4414   6.5469   9.8165   9.9770  10.7372  10.8155  10.9936  11.0443
    12.2322  12.2436  12.4549  12.4919

          k = 0.0000 0.2566 0.0000 (  1443 PWs)   bands (ev):

   -74.5520 -74.5460 -40.7009 -40.6923 -40.6769 -40.6653 -40.6447 -40.5880
     5.3761   8.7593   9.8782  10.1475  10.5554  10.9062  11.3691  11.4884
    11.6210  11.7632  12.6857  14.1660

          k = 0.0000 0.2566 0.1156 (  1440 PWs)   bands (ev):

   -74.5514 -74.5465 -40.7008 -40.6936 -40.6757 -40.6664 -40.6388 -40.5931
     5.6165   8.3827   9.7344  10.1740  10.4956  10.8124  11.3467  11.4499
    11.7724  11.8877  12.6102  13.1497

          k = 0.0000 0.2566 0.2312 (  1442 PWs)   bands (ev):

   -74.5499 -74.5480 -40.6994 -40.6967 -40.6730 -40.6693 -40.6237 -40.6063
     6.3119   7.3524   9.8194  10.0731  10.4595  10.6279  11.3408  11.3849
    12.1148  12.1413  12.4085  12.5427

          k = 0.0000 0.3849 0.0000 (  1458 PWs)   bands (ev):

   -74.5486 -74.5438 -40.7286 -40.7200 -40.6846 -40.6714 -40.6337 -40.5930
     6.7578   9.1845   9.7696  10.0011  10.3965  11.3000  11.3481  11.5794
    11.8472  11.9120  12.7017  15.0169

          k = 0.0000 0.3849 0.1156 (  1448 PWs)   bands (ev):

   -74.5479 -74.5443 -40.7283 -40.7212 -40.6834 -40.6726 -40.6290 -40.5961
     6.9668   9.0280   9.6400  10.1354  10.3099  11.0124  11.6238  11.6506
    11.8712  11.9188  12.5980  13.6412

          k = 0.0000 0.3849 0.2312 (  1439 PWs)   bands (ev):

   -74.5467 -74.5453 -40.7274 -40.7245 -40.6799 -40.6760 -40.6172 -40.6048
     7.5461   8.3524   9.7699  10.0465  10.3923  10.6919  11.7201  11.8134
    12.0485  12.0842  12.3489  12.6387

          k = 0.0000 0.5132 0.0000 (  1446 PWs)   bands (ev):

   -74.5456 -74.5428 -40.7467 -40.7375 -40.6895 -40.6750 -40.6242 -40.5975
     8.1680   9.1104   9.7555   9.8008  10.4958  11.0754  11.4690  12.1694
    12.1768  12.2341  12.7040  14.1535

          k = 0.0000 0.5132 0.1156 (  1450 PWs)   bands (ev):

   -74.5454 -74.5431 -40.7466 -40.7391 -40.6881 -40.6766 -40.6208 -40.5997
     8.2752   9.0762   9.6499   9.9330  10.4822  11.2562  11.5639  12.0459
    12.1825  12.2236  12.5709  13.7095

          k = 0.0000 0.5132 0.2312 (  1460 PWs)   bands (ev):

   -74.5448 -74.5438 -40.7458 -40.7429 -40.6848 -40.6805 -40.6128 -40.6050
     8.5456   8.8640   9.7263   9.9153  10.7178  11.2241  11.8231  12.1238
    12.1313  12.2217  12.3051  12.8263

          k = 0.1111 0.1925 0.0000 (  1428 PWs)   bands (ev):

   -74.5528 -74.5464 -40.6916 -40.6860 -40.6732 -40.6654 -40.6472 -40.5869
     5.0764   8.5946   9.9334  10.1695  10.6909  10.7579  11.2635  11.4058
    11.6552  11.8742  12.6535  13.8420

          k = 0.1111 0.1925 0.1156 (  1448 PWs)   bands (ev):

   -74.5524 -74.5473 -40.6919 -40.6870 -40.6734 -40.6665 -40.6413 -40.5926
     5.3215   8.1789   9.7691  10.1731  10.5802  10.7624  11.2423  11.3626
    11.8240  11.9495  12.5870  13.0521

          k = 0.1111 0.1925 0.2312 (  1443 PWs)   bands (ev):

   -74.5507 -74.5488 -40.6908 -40.6886 -40.6716 -40.6689 -40.6253 -40.6068
     6.0312   7.0994   9.8242  10.0544  10.5196  10.6465  11.2443  11.2937
    12.1582  12.1606  12.4048  12.5433

          k = 0.1111 0.3208 0.0000 (  1449 PWs)   bands (ev):

   -74.5496 -74.5445 -40.7156 -40.7100 -40.6831 -40.6732 -40.6378 -40.5909
     6.2394   9.1645   9.8162   9.9849  10.5151  10.9367  11.3644  11.6742
    11.6910  11.8533  12.6469  14.9269

          k = 0.1111 0.3208 0.1156 (  1451 PWs)   bands (ev):

   -74.5492 -74.5450 -40.7157 -40.7107 -40.6826 -40.6744 -40.6325 -40.5948
     6.4646   8.9210   9.6772  10.0575  10.4524  10.7574  11.5296  11.6068
    11.8288  11.8988  12.5605  13.5253

          k = 0.1111 0.3208 0.2312 (  1436 PWs)   bands (ev):

   -74.5477 -74.5462 -40.7148 -40.7128 -40.6803 -40.6771 -40.6192 -40.6051
     7.1103   8.0469   9.8252  10.1485  10.2463  10.5009  11.5862  11.7017
    12.0772  12.1095  12.3532  12.6551

          k = 0.1111 0.4491 0.0000 (  1455 PWs)   bands (ev):

   -74.5464 -74.5430 -40.7376 -40.7292 -40.6922 -40.6798 -40.6269 -40.5964
     7.7023   9.3012   9.8066   9.8217  10.5117  11.1347  11.4498  11.4697
    12.0212  12.3740  12.6373  15.2495

          k = 0.1111 0.4491 0.1156 (  1445 PWs)   bands (ev):

   -74.5460 -74.5433 -40.7374 -40.7307 -40.6911 -40.6808 -40.6229 -40.5982
     7.8683   9.2682   9.6303  10.0186  10.4091  10.9927  11.5050  11.6296
    12.0970  12.2717  12.5880  14.1865

          k = 0.1111 0.4491 0.2312 (  1448 PWs)   bands (ev):

   -74.5452 -74.5441 -40.7366 -40.7340 -40.6883 -40.6844 -40.6136 -40.6046
     8.3135   8.8764   9.7637  10.0273  10.3980  10.6879  11.6819  11.9550
    12.0117  12.2327  12.5621  13.0544

          k = 0.1111 0.5774 0.0000 (  1454 PWs)   bands (ev):

   -74.5449 -74.5426 -40.7462 -40.7372 -40.6957 -40.6821 -40.6210 -40.6003
     8.6410   9.1524   9.6832   9.8276  10.5843  11.0388  11.3547  11.9801
    12.0266  12.6321  12.9699  13.8584

          k = 0.1111 0.5774 0.1156 (  1448 PWs)   bands (ev):

   -74.5446 -74.5428 -40.7461 -40.7387 -40.6945 -40.6833 -40.6177 -40.6012
     8.7087   9.1535   9.6659   9.9281  10.5032  11.0949  11.4793  12.0119
    12.0236  12.4093  12.9752  13.7507

          k = 0.1111 0.5774 0.2312 (  1447 PWs)   bands (ev):

   -74.5440 -74.5434 -40.7449 -40.7421 -40.6913 -40.6869 -40.6112 -40.6048
     8.8739   9.0574   9.7709   9.9758  10.5856  10.9794  11.7561  11.9912
    12.0310  12.1230  13.0488  13.4168

          k = 0.2222 0.3849 0.0000 (  1466 PWs)   bands (ev):

   -74.5467 -74.5433 -40.7273 -40.7262 -40.6956 -40.6868 -40.6281 -40.5960
     7.5241   9.5034   9.7213   9.8620  10.6367  11.0489  11.1306  11.4476
    11.9449  12.4410  12.5673  15.7838

          k = 0.2222 0.3849 0.1156 (  1452 PWs)   bands (ev):

   -74.5463 -74.5434 -40.7272 -40.7265 -40.6952 -40.6879 -40.6236 -40.5980
     7.7121   9.5518   9.6363   9.7927  10.6165  10.6804  11.3541  11.5304
    12.0970  12.2490  12.6188  14.3775

          k = 0.2222 0.3849 0.2312 (  1442 PWs)   bands (ev):

   -74.5453 -74.5442 -40.7276 -40.7275 -40.6935 -40.6904 -40.6138 -40.6043
     8.2335   8.9444   9.8582   9.9768  10.3013  10.3616  11.5274  11.8876
    12.0156  12.2270  12.6946  13.2084

          k = 0.2222 0.5132 0.0000 (  1452 PWs)   bands (ev):

   -74.5442 -74.5425 -40.7366 -40.7289 -40.7075 -40.6965 -40.6183 -40.6021
     8.7601   9.4559   9.5920   9.9771  10.7842  11.0233  11.1807  11.4508
    11.8736  12.5152  13.2905  15.0806

          k = 0.2222 0.5132 0.1156 (  1455 PWs)   bands (ev):

   -74.5441 -74.5427 -40.7364 -40.7303 -40.7071 -40.6979 -40.6155 -40.6025
     8.8772   9.5278   9.6052   9.9972  10.5935  10.8119  11.2429  11.6286
    11.9934  12.2823  13.4140  14.9581

          k = 0.2222 0.5132 0.2312 (  1460 PWs)   bands (ev):

   -74.5438 -74.5433 -40.7354 -40.7331 -40.7052 -40.7015 -40.6097 -40.6048
     9.1666   9.4487   9.8201  10.0842  10.2667  10.4437  11.4652  11.8371
    11.9281  12.0849  13.7214  14.3184

          k = 0.3333 0.5774 0.0000 (  1434 PWs)   bands (ev):

   -74.5427 -74.5427 -40.7292 -40.7203 -40.7203 -40.7107 -40.6093 -40.6093
     9.3507   9.3507   9.5823  10.1173  10.9914  10.9914  11.0234  11.5414
    11.5414  12.4579  14.8250  14.9429

          k = 0.3333 0.5774 0.1156 (  1458 PWs)   bands (ev):

   -74.5430 -74.5430 -40.7279 -40.7218 -40.7218 -40.7130 -40.6083 -40.6083
     9.4630   9.4630   9.6354  10.0760  10.7113  10.7113  11.1021  11.7272
    11.7272  12.2200  15.0462  15.0462

          k = 0.3333 0.5774 0.2312 (  1464 PWs)   bands (ev):

   -74.5431 -74.5431 -40.7235 -40.7235 -40.7232 -40.7176 -40.6064 -40.6064
     9.7683   9.7683   9.7787   9.9501  10.2548  10.2548  11.3549  11.7628
    11.9094  11.9094  15.2937  15.2937

     the Fermi energy is    10.6420 ev

!    total energy              =    -658.40500620 Ry
     Harris-Foulkes estimate   =    -658.40500609 Ry
     estimated scf accuracy    <          2.6E-09 Ry

     total all-electron energy =     -5090.998077 Ry

     The total energy is the sum of the following terms:

     one-electron contribution =    -300.02915334 Ry
     hartree contribution      =     161.92253890 Ry
     xc contribution           =     -69.40850757 Ry
     ewald contribution        =    -298.61248900 Ry
     one-center paw contrib.   =    -152.27827269 Ry
     smearing contrib. (-TS)   =       0.00087751 Ry

     total magnetization       =     6.01 Bohr mag/cell
     absolute magnetization    =     6.28 Bohr mag/cell

     convergence has been achieved in  15 iterations

     Forces acting on atoms (Ry/au):


     negative rho (up, down):  0.000E+00 1.054E-03
     atom    1 type  1   force =     0.00000000    0.00000000    0.00000000
     atom    2 type  1   force =     0.00000000   -0.00000000    0.00000000

     Total force =     0.000000     Total SCF correction =     0.000000


     entering subroutine stress ...


     negative rho (up, down):  0.000E+00 1.054E-03
          total   stress  (Ry/bohr**3)                   (kbar)     P= -286.74
  -0.00202592   0.00000000  -0.00000000       -298.02      0.00     -0.00
   0.00000000  -0.00202592  -0.00000000          0.00   -298.02     -0.00
   0.00000000   0.00000000  -0.00179576          0.00      0.00   -264.17


     Writing output data file Fe_hcp.save

     init_run     :      4.83s CPU      4.82s WALL (       1 calls)
     electrons    :    133.45s CPU    126.15s WALL (       1 calls)
     forces       :      0.83s CPU      0.67s WALL (       1 calls)
     stress       :      2.33s CPU      2.33s WALL (       1 calls)

     Called by init_run:
     wfcinit      :      3.12s CPU      3.03s WALL (       1 calls)
     potinit      :      1.10s CPU      1.14s WALL (       1 calls)

     Called by electrons:
     c_bands      :    100.50s CPU     92.71s WALL (      15 calls)
     sum_band     :     15.78s CPU     15.52s WALL (      15 calls)
     v_of_rho     :      0.96s CPU      1.01s WALL (      16 calls)
     newd         :      1.26s CPU      1.33s WALL (      16 calls)
     mix_rho      :      0.15s CPU      0.21s WALL (      15 calls)

     Called by c_bands:
     init_us_2    :      1.38s CPU      1.41s WALL (    2376 calls)
     cegterg      :     96.65s CPU     88.77s WALL (    1080 calls)

     Called by *egterg:
     h_psi        :     76.77s CPU     74.74s WALL (    3989 calls)
     s_psi        :      3.52s CPU      2.05s WALL (    3989 calls)
     g_psi        :      0.51s CPU      0.52s WALL (    2837 calls)
     cdiaghg      :      4.16s CPU      4.23s WALL (    3917 calls)

     Called by h_psi:
     add_vuspsi   :      4.11s CPU      2.38s WALL (    3989 calls)

     General routines
     calbec       :      5.34s CPU      3.03s WALL (    5213 calls)
     fft          :      0.55s CPU      0.56s WALL (     530 calls)
     ffts         :      0.04s CPU      0.04s WALL (      62 calls)
     fftw         :     73.11s CPU     74.50s WALL (  140002 calls)
     interpolate  :      0.12s CPU      0.13s WALL (      62 calls)
     davcio       :      0.00s CPU      0.04s WALL (      72 calls)


     PAW routines
     PAW_pot      :     15.86s CPU     16.46s WALL (      16 calls)
     PAW_symme    :      0.02s CPU      0.02s WALL (      31 calls)

     PWSCF        :  2m21.92s CPU     2m14.62s WALL


   This run was terminated on:  21:36:53  11May2015            

=------------------------------------------------------------------------------=
   JOB DONE.
=------------------------------------------------------------------------------=
