
     Program PWSCF v.5.1.2 starts on 11May2015 at 20:30:16 

     This program is part of the open-source Quantum ESPRESSO suite
     for quantum simulation of materials; please cite
         "P. Giannozzi et al., J. Phys.:Condens. Matter 21 395502 (2009);
          URL http://www.quantum-espresso.org", 
     in publications or presentations arising from this work. More details at
     http://www.quantum-espresso.org/quote

     Serial version
     Reading input from Fe_HCP_5.45_174_8_4.pw.in

     Current dimensions of program PWSCF are:
     Max number of different atomic species (ntypx) = 10
     Max number of k-points (npk) =  40000
     Max angular momentum in pseudopotentials (lmaxx) =  3
               file Fe.pbe-spn-kjpaw_psl.0.2.1.UPF: wavefunction(s)  3D renormalized

     G-vector sticks info
     --------------------
     sticks:   dense  smooth     PW     G-vecs:    dense   smooth      PW
     Sum         511     421    121                16301    11719    2003

     Generating pointlists ...
     new r_m :   0.4125 (alat units)  2.2481 (a.u.) for type    1


     bravais-lattice index     =            4
     lattice parameter (alat)  =       5.4500  a.u.
     unit-cell volume          =     243.9323 (a.u.)^3
     number of atoms/cell      =            2
     number of atomic types    =            1
     number of electrons       =        32.00
     number of Kohn-Sham states=           20
     kinetic-energy cutoff     =      50.0000  Ry
     charge density cutoff     =     250.0000  Ry
     convergence threshold     =      1.0E-08
     mixing beta               =       0.7000
     number of iterations used =            8  plain     mixing
     Exchange-correlation      =  SLA  PW   PBX  PBC ( 1  4  3  4 0 0)

     celldm(1)=   5.450000  celldm(2)=   0.000000  celldm(3)=   1.740000
     celldm(4)=   0.000000  celldm(5)=   0.000000  celldm(6)=   0.000000

     crystal axes: (cart. coord. in units of alat)
               a(1) = (   1.000000   0.000000   0.000000 )  
               a(2) = (  -0.500000   0.866025   0.000000 )  
               a(3) = (   0.000000   0.000000   1.740000 )  

     reciprocal axes: (cart. coord. in units 2 pi/alat)
               b(1) = (  1.000000  0.577350 -0.000000 )  
               b(2) = (  0.000000  1.154701  0.000000 )  
               b(3) = (  0.000000 -0.000000  0.574713 )  


     PseudoPot. # 1 for Fe read from file:
     ./Fe.pbe-spn-kjpaw_psl.0.2.1.UPF
     MD5 check sum: a0a08122d52b112de96d1da1d7dd020f
     Pseudo is Projector augmented-wave + core cor, Zval = 16.0
     Generated using "atomic" code by A. Dal Corso  v.5.0.2 svn rev. 9415
     Shape of augmentation charge: PSQ
     Using radial grid of 1191 points,  6 beta functions with: 
                l(1) =   0
                l(2) =   0
                l(3) =   1
                l(4) =   1
                l(5) =   2
                l(6) =   2
     Q(r) pseudized with 0 coefficients 


     atomic species   valence    mass     pseudopotential
        Fe            16.00    55.85000     Fe( 1.00)

     Starting magnetic structure 
     atomic species   magnetization
        Fe           0.700

     24 Sym. Ops., with inversion, found (12 have fractional translation)



   Cartesian axes

     site n.     atom                  positions (alat units)
         1           Fe  tau(   1) = (  -0.0000000   0.5773503   0.4350000  )
         2           Fe  tau(   2) = (   0.5000000   0.2886751   1.3050000  )

     number of k points=    60  Marzari-Vanderbilt smearing, width (Ry)=  0.0250
                       cart. coord. in units 2pi/alat
        k(    1) = (   0.0000000   0.0000000   0.0000000), wk =   0.0039062
        k(    2) = (   0.0000000   0.0000000   0.1436782), wk =   0.0078125
        k(    3) = (   0.0000000   0.0000000  -0.2873563), wk =   0.0039062
        k(    4) = (   0.0000000   0.1443376   0.0000000), wk =   0.0234375
        k(    5) = (   0.0000000   0.1443376   0.1436782), wk =   0.0468750
        k(    6) = (   0.0000000   0.1443376  -0.2873563), wk =   0.0234375
        k(    7) = (   0.0000000   0.2886751   0.0000000), wk =   0.0234375
        k(    8) = (   0.0000000   0.2886751   0.1436782), wk =   0.0468750
        k(    9) = (   0.0000000   0.2886751  -0.2873563), wk =   0.0234375
        k(   10) = (   0.0000000   0.4330127   0.0000000), wk =   0.0234375
        k(   11) = (   0.0000000   0.4330127   0.1436782), wk =   0.0468750
        k(   12) = (   0.0000000   0.4330127  -0.2873563), wk =   0.0234375
        k(   13) = (   0.0000000  -0.5773503   0.0000000), wk =   0.0117188
        k(   14) = (   0.0000000  -0.5773503   0.1436782), wk =   0.0234375
        k(   15) = (   0.0000000  -0.5773503  -0.2873563), wk =   0.0117188
        k(   16) = (   0.1250000   0.2165064   0.0000000), wk =   0.0234375
        k(   17) = (   0.1250000   0.2165064   0.1436782), wk =   0.0468750
        k(   18) = (   0.1250000   0.2165064  -0.2873563), wk =   0.0234375
        k(   19) = (   0.1250000   0.3608439   0.0000000), wk =   0.0468750
        k(   20) = (   0.1250000   0.3608439   0.1436782), wk =   0.0937500
        k(   21) = (   0.1250000   0.3608439  -0.2873563), wk =   0.0468750
        k(   22) = (   0.1250000   0.5051815   0.0000000), wk =   0.0468750
        k(   23) = (   0.1250000   0.5051815   0.1436782), wk =   0.0937500
        k(   24) = (   0.1250000   0.5051815  -0.2873563), wk =   0.0468750
        k(   25) = (   0.2500000   0.4330127   0.0000000), wk =   0.0234375
        k(   26) = (   0.2500000   0.4330127   0.1436782), wk =   0.0468750
        k(   27) = (   0.2500000   0.4330127  -0.2873563), wk =   0.0234375
        k(   28) = (   0.2500000   0.5773503   0.0000000), wk =   0.0234375
        k(   29) = (   0.2500000   0.5773503   0.1436782), wk =   0.0468750
        k(   30) = (   0.2500000   0.5773503  -0.2873563), wk =   0.0234375
        k(   31) = (   0.0000000   0.0000000   0.0000000), wk =   0.0039062
        k(   32) = (   0.0000000   0.0000000   0.1436782), wk =   0.0078125
        k(   33) = (   0.0000000   0.0000000  -0.2873563), wk =   0.0039062
        k(   34) = (   0.0000000   0.1443376   0.0000000), wk =   0.0234375
        k(   35) = (   0.0000000   0.1443376   0.1436782), wk =   0.0468750
        k(   36) = (   0.0000000   0.1443376  -0.2873563), wk =   0.0234375
        k(   37) = (   0.0000000   0.2886751   0.0000000), wk =   0.0234375
        k(   38) = (   0.0000000   0.2886751   0.1436782), wk =   0.0468750
        k(   39) = (   0.0000000   0.2886751  -0.2873563), wk =   0.0234375
        k(   40) = (   0.0000000   0.4330127   0.0000000), wk =   0.0234375
        k(   41) = (   0.0000000   0.4330127   0.1436782), wk =   0.0468750
        k(   42) = (   0.0000000   0.4330127  -0.2873563), wk =   0.0234375
        k(   43) = (   0.0000000  -0.5773503   0.0000000), wk =   0.0117188
        k(   44) = (   0.0000000  -0.5773503   0.1436782), wk =   0.0234375
        k(   45) = (   0.0000000  -0.5773503  -0.2873563), wk =   0.0117188
        k(   46) = (   0.1250000   0.2165064   0.0000000), wk =   0.0234375
        k(   47) = (   0.1250000   0.2165064   0.1436782), wk =   0.0468750
        k(   48) = (   0.1250000   0.2165064  -0.2873563), wk =   0.0234375
        k(   49) = (   0.1250000   0.3608439   0.0000000), wk =   0.0468750
        k(   50) = (   0.1250000   0.3608439   0.1436782), wk =   0.0937500
        k(   51) = (   0.1250000   0.3608439  -0.2873563), wk =   0.0468750
        k(   52) = (   0.1250000   0.5051815   0.0000000), wk =   0.0468750
        k(   53) = (   0.1250000   0.5051815   0.1436782), wk =   0.0937500
        k(   54) = (   0.1250000   0.5051815  -0.2873563), wk =   0.0468750
        k(   55) = (   0.2500000   0.4330127   0.0000000), wk =   0.0234375
        k(   56) = (   0.2500000   0.4330127   0.1436782), wk =   0.0468750
        k(   57) = (   0.2500000   0.4330127  -0.2873563), wk =   0.0234375
        k(   58) = (   0.2500000   0.5773503   0.0000000), wk =   0.0234375
        k(   59) = (   0.2500000   0.5773503   0.1436782), wk =   0.0468750
        k(   60) = (   0.2500000   0.5773503  -0.2873563), wk =   0.0234375

     Dense  grid:    16301 G-vectors     FFT dimensions: (  27,  27,  48)

     Smooth grid:    11719 G-vectors     FFT dimensions: (  25,  25,  45)

     Largest allocated arrays     est. size (Mb)     dimensions
        Kohn-Sham Wavefunctions         0.45 Mb     (    1476,   20)
        NL pseudopotentials             0.81 Mb     (    1476,   36)
        Each V/rho on FFT grid          1.07 Mb     (   34992,   2)
        Each G-vector array             0.12 Mb     (   16301)
        G-vector shells                 0.01 Mb     (     848)
     Largest temporary arrays     est. size (Mb)     dimensions
        Auxiliary wavefunctions         1.80 Mb     (    1476,   80)
        Each subspace H/S matrix        0.10 Mb     (      80,   80)
        Each <psi_i|beta_j> matrix      0.01 Mb     (      36,   20)
        Arrays for rho mixing           4.27 Mb     (   34992,    8)

     Check: negative/imaginary core charge=   -0.000313    0.000000

     Initial potential from superposition of free atoms

     starting charge   31.99912, renormalised to   32.00000
     Starting wfc are   26 randomized atomic wfcs

     total cpu time spent up to now is        4.8 secs

     Self-consistent Calculation

     iteration #  1     ecut=    50.00 Ry     beta=0.70
     Davidson diagonalization with overlap
     ethr =  1.00E-02,  avg # of iterations =  1.9

     negative rho (up, down):  0.000E+00 1.120E-03

     Magnetic moment per site:
     atom:    1    charge:   14.6112    magn:    5.9500    constr:    0.0000
     atom:    2    charge:   14.6112    magn:    5.9500    constr:    0.0000

     total cpu time spent up to now is       11.6 secs

     total energy              =    -657.95743505 Ry
     Harris-Foulkes estimate   =    -656.24551392 Ry
     estimated scf accuracy    <       2.83440766 Ry

     total magnetization       =     8.00 Bohr mag/cell
     absolute magnetization    =     8.28 Bohr mag/cell

     iteration #  2     ecut=    50.00 Ry     beta=0.70
     Davidson diagonalization with overlap
     ethr =  8.86E-03,  avg # of iterations =  1.6

     negative rho (up, down):  0.000E+00 1.089E-03

     Magnetic moment per site:
     atom:    1    charge:   14.8382    magn:    4.0516    constr:    0.0000
     atom:    2    charge:   14.8382    magn:    4.0516    constr:    0.0000

     total cpu time spent up to now is       17.7 secs

     total energy              =    -658.12172288 Ry
     Harris-Foulkes estimate   =    -658.17418146 Ry
     estimated scf accuracy    <       0.85146851 Ry

     total magnetization       =     6.58 Bohr mag/cell
     absolute magnetization    =     6.87 Bohr mag/cell

     iteration #  3     ecut=    50.00 Ry     beta=0.70
     Davidson diagonalization with overlap
     ethr =  2.66E-03,  avg # of iterations =  3.0

     negative rho (up, down):  0.000E+00 1.289E-03

     Magnetic moment per site:
     atom:    1    charge:   14.7229    magn:    3.0932    constr:    0.0000
     atom:    2    charge:   14.7229    magn:    3.0932    constr:    0.0000

     total cpu time spent up to now is       24.8 secs

     total energy              =    -658.15996550 Ry
     Harris-Foulkes estimate   =    -658.64510249 Ry
     estimated scf accuracy    <       1.35207547 Ry

     total magnetization       =     6.84 Bohr mag/cell
     absolute magnetization    =     7.10 Bohr mag/cell

     iteration #  4     ecut=    50.00 Ry     beta=0.70
     Davidson diagonalization with overlap
     ethr =  2.66E-03,  avg # of iterations =  2.7

     negative rho (up, down):  0.000E+00 1.059E-03

     Magnetic moment per site:
     atom:    1    charge:   14.7838    magn:    3.0300    constr:    0.0000
     atom:    2    charge:   14.7838    magn:    3.0300    constr:    0.0000

     total cpu time spent up to now is       31.5 secs

     total energy              =    -658.39295453 Ry
     Harris-Foulkes estimate   =    -658.39303893 Ry
     estimated scf accuracy    <       0.00673293 Ry

     total magnetization       =     5.94 Bohr mag/cell
     absolute magnetization    =     6.31 Bohr mag/cell

     iteration #  5     ecut=    50.00 Ry     beta=0.70
     Davidson diagonalization with overlap
     ethr =  2.10E-05,  avg # of iterations =  3.1

     negative rho (up, down):  0.000E+00 1.072E-03

     Magnetic moment per site:
     atom:    1    charge:   14.7720    magn:    3.0324    constr:    0.0000
     atom:    2    charge:   14.7720    magn:    3.0324    constr:    0.0000

     total cpu time spent up to now is       39.8 secs

     total energy              =    -658.40012080 Ry
     Harris-Foulkes estimate   =    -658.39898773 Ry
     estimated scf accuracy    <       0.00075888 Ry

     total magnetization       =     5.90 Bohr mag/cell
     absolute magnetization    =     6.26 Bohr mag/cell

     iteration #  6     ecut=    50.00 Ry     beta=0.70
     Davidson diagonalization with overlap
     ethr =  2.37E-06,  avg # of iterations =  2.2

     negative rho (up, down):  0.000E+00 1.097E-03

     Magnetic moment per site:
     atom:    1    charge:   14.7710    magn:    3.0450    constr:    0.0000
     atom:    2    charge:   14.7710    magn:    3.0450    constr:    0.0000

     total cpu time spent up to now is       45.7 secs

     total energy              =    -658.39904817 Ry
     Harris-Foulkes estimate   =    -658.40039352 Ry
     estimated scf accuracy    <       0.00064795 Ry

     total magnetization       =     5.88 Bohr mag/cell
     absolute magnetization    =     6.24 Bohr mag/cell

     iteration #  7     ecut=    50.00 Ry     beta=0.70
     Davidson diagonalization with overlap
     ethr =  2.02E-06,  avg # of iterations =  1.6

     negative rho (up, down):  0.000E+00 1.023E-03

     Magnetic moment per site:
     atom:    1    charge:   14.7721    magn:    3.0084    constr:    0.0000
     atom:    2    charge:   14.7721    magn:    3.0084    constr:    0.0000

     total cpu time spent up to now is       51.3 secs

     total energy              =    -658.40077138 Ry
     Harris-Foulkes estimate   =    -658.39908904 Ry
     estimated scf accuracy    <       0.00190120 Ry

     total magnetization       =     5.89 Bohr mag/cell
     absolute magnetization    =     6.25 Bohr mag/cell

     iteration #  8     ecut=    50.00 Ry     beta=0.70
     Davidson diagonalization with overlap
     ethr =  2.02E-06,  avg # of iterations =  2.8

     negative rho (up, down):  0.000E+00 1.036E-03

     Magnetic moment per site:
     atom:    1    charge:   14.7740    magn:    3.0109    constr:    0.0000
     atom:    2    charge:   14.7740    magn:    3.0109    constr:    0.0000

     total cpu time spent up to now is       58.4 secs

     total energy              =    -658.40153455 Ry
     Harris-Foulkes estimate   =    -658.40148980 Ry
     estimated scf accuracy    <       0.00012262 Ry

     total magnetization       =     5.84 Bohr mag/cell
     absolute magnetization    =     6.19 Bohr mag/cell

     iteration #  9     ecut=    50.00 Ry     beta=0.70
     Davidson diagonalization with overlap
     ethr =  3.83E-07,  avg # of iterations =  2.2

     negative rho (up, down):  0.000E+00 1.016E-03

     Magnetic moment per site:
     atom:    1    charge:   14.7754    magn:    2.9916    constr:    0.0000
     atom:    2    charge:   14.7754    magn:    2.9916    constr:    0.0000

     total cpu time spent up to now is       64.6 secs

     total energy              =    -658.40180699 Ry
     Harris-Foulkes estimate   =    -658.40155532 Ry
     estimated scf accuracy    <       0.00044842 Ry

     total magnetization       =     5.84 Bohr mag/cell
     absolute magnetization    =     6.19 Bohr mag/cell

     iteration # 10     ecut=    50.00 Ry     beta=0.70
     Davidson diagonalization with overlap
     ethr =  3.83E-07,  avg # of iterations =  2.8

     negative rho (up, down):  0.000E+00 1.010E-03

     Magnetic moment per site:
     atom:    1    charge:   14.7757    magn:    2.9859    constr:    0.0000
     atom:    2    charge:   14.7757    magn:    2.9859    constr:    0.0000

     total cpu time spent up to now is       71.9 secs

     total energy              =    -658.40197191 Ry
     Harris-Foulkes estimate   =    -658.40192287 Ry
     estimated scf accuracy    <       0.00004990 Ry

     total magnetization       =     5.82 Bohr mag/cell
     absolute magnetization    =     6.16 Bohr mag/cell

     iteration # 11     ecut=    50.00 Ry     beta=0.70
     Davidson diagonalization with overlap
     ethr =  1.56E-07,  avg # of iterations =  2.7

     negative rho (up, down):  0.000E+00 1.004E-03

     Magnetic moment per site:
     atom:    1    charge:   14.7760    magn:    2.9816    constr:    0.0000
     atom:    2    charge:   14.7760    magn:    2.9816    constr:    0.0000

     total cpu time spent up to now is       78.2 secs

     total energy              =    -658.40201084 Ry
     Harris-Foulkes estimate   =    -658.40199122 Ry
     estimated scf accuracy    <       0.00002077 Ry

     total magnetization       =     5.81 Bohr mag/cell
     absolute magnetization    =     6.15 Bohr mag/cell

     iteration # 12     ecut=    50.00 Ry     beta=0.70
     Davidson diagonalization with overlap
     ethr =  6.49E-08,  avg # of iterations =  2.8

     negative rho (up, down):  0.000E+00 9.876E-04

     Magnetic moment per site:
     atom:    1    charge:   14.7776    magn:    2.9635    constr:    0.0000
     atom:    2    charge:   14.7776    magn:    2.9635    constr:    0.0000

     total cpu time spent up to now is       84.9 secs

     total energy              =    -658.40181272 Ry
     Harris-Foulkes estimate   =    -658.40201931 Ry
     estimated scf accuracy    <       0.00000713 Ry

     total magnetization       =     5.81 Bohr mag/cell
     absolute magnetization    =     6.14 Bohr mag/cell

     iteration # 13     ecut=    50.00 Ry     beta=0.70
     Davidson diagonalization with overlap
     ethr =  2.23E-08,  avg # of iterations =  4.2

     negative rho (up, down):  0.000E+00 9.949E-04

     Magnetic moment per site:
     atom:    1    charge:   14.7768    magn:    2.9710    constr:    0.0000
     atom:    2    charge:   14.7768    magn:    2.9710    constr:    0.0000

     total cpu time spent up to now is       93.8 secs

     total energy              =    -658.40202553 Ry
     Harris-Foulkes estimate   =    -658.40186814 Ry
     estimated scf accuracy    <       0.00006693 Ry

     total magnetization       =     5.79 Bohr mag/cell
     absolute magnetization    =     6.12 Bohr mag/cell

     iteration # 14     ecut=    50.00 Ry     beta=0.70
     Davidson diagonalization with overlap
     ethr =  2.23E-08,  avg # of iterations =  2.5

     negative rho (up, down):  0.000E+00 9.993E-04

     Magnetic moment per site:
     atom:    1    charge:   14.7763    magn:    2.9756    constr:    0.0000
     atom:    2    charge:   14.7763    magn:    2.9756    constr:    0.0000

     total cpu time spent up to now is      100.9 secs

     total energy              =    -658.40203362 Ry
     Harris-Foulkes estimate   =    -658.40203141 Ry
     estimated scf accuracy    <       0.00000345 Ry

     total magnetization       =     5.80 Bohr mag/cell
     absolute magnetization    =     6.13 Bohr mag/cell

     iteration # 15     ecut=    50.00 Ry     beta=0.70
     Davidson diagonalization with overlap
     ethr =  1.08E-08,  avg # of iterations =  2.8

     negative rho (up, down):  0.000E+00 9.964E-04

     Magnetic moment per site:
     atom:    1    charge:   14.7766    magn:    2.9727    constr:    0.0000
     atom:    2    charge:   14.7766    magn:    2.9727    constr:    0.0000

     total cpu time spent up to now is      108.1 secs

     total energy              =    -658.40203690 Ry
     Harris-Foulkes estimate   =    -658.40203625 Ry
     estimated scf accuracy    <       0.00000187 Ry

     total magnetization       =     5.80 Bohr mag/cell
     absolute magnetization    =     6.13 Bohr mag/cell

     iteration # 16     ecut=    50.00 Ry     beta=0.70
     Davidson diagonalization with overlap
     ethr =  5.83E-09,  avg # of iterations =  2.4

     negative rho (up, down):  0.000E+00 9.972E-04

     Magnetic moment per site:
     atom:    1    charge:   14.7765    magn:    2.9736    constr:    0.0000
     atom:    2    charge:   14.7765    magn:    2.9736    constr:    0.0000

     total cpu time spent up to now is      115.0 secs

     total energy              =    -658.40203925 Ry
     Harris-Foulkes estimate   =    -658.40203815 Ry
     estimated scf accuracy    <       0.00000054 Ry

     total magnetization       =     5.80 Bohr mag/cell
     absolute magnetization    =     6.13 Bohr mag/cell

     iteration # 17     ecut=    50.00 Ry     beta=0.70
     Davidson diagonalization with overlap
     ethr =  1.69E-09,  avg # of iterations =  1.6

     negative rho (up, down):  0.000E+00 9.973E-04

     Magnetic moment per site:
     atom:    1    charge:   14.7765    magn:    2.9737    constr:    0.0000
     atom:    2    charge:   14.7765    magn:    2.9737    constr:    0.0000

     total cpu time spent up to now is      120.8 secs

     total energy              =    -658.40203934 Ry
     Harris-Foulkes estimate   =    -658.40203932 Ry
     estimated scf accuracy    <       0.00000002 Ry

     total magnetization       =     5.80 Bohr mag/cell
     absolute magnetization    =     6.13 Bohr mag/cell

     iteration # 18     ecut=    50.00 Ry     beta=0.70
     Davidson diagonalization with overlap
     ethr =  6.81E-11,  avg # of iterations =  3.3

     negative rho (up, down):  0.000E+00 9.974E-04

     Magnetic moment per site:
     atom:    1    charge:   14.7765    magn:    2.9737    constr:    0.0000
     atom:    2    charge:   14.7765    magn:    2.9737    constr:    0.0000

     total cpu time spent up to now is      128.2 secs

     End of self-consistent calculation

 ------ SPIN UP ------------


          k = 0.0000 0.0000 0.0000 (  1461 PWs)   bands (ev):

   -78.0361 -78.0296 -44.1067 -44.1067 -44.0994 -44.0994 -43.9905 -43.9339
     3.7980   6.8390   8.0894   8.0894   8.2042   8.2042   8.2594   8.2594
     8.3797   8.6863   8.6863  10.0024

          k = 0.0000 0.0000 0.1437 (  1461 PWs)   bands (ev):

   -78.0350 -78.0308 -44.1058 -44.1058 -44.1004 -44.1004 -43.9832 -43.9419
     4.1898   6.4729   8.0361   8.0361   8.1434   8.1434   8.3294   8.3932
     8.3932   8.6691   8.6691   8.8131

          k = 0.0000 0.0000-0.2874 (  1438 PWs)   bands (ev):

   -78.0326 -78.0326 -44.1030 -44.1030 -44.1030 -44.1030 -43.9618 -43.9618
     5.2682   5.2682   8.0498   8.0498   8.0498   8.0498   8.2934   8.2934
     8.5724   8.5724   8.5724   8.5724

          k = 0.0000 0.1443 0.0000 (  1453 PWs)   bands (ev):

   -78.0348 -78.0286 -44.1167 -44.1098 -44.1097 -44.1018 -43.9871 -43.9342
     4.1989   7.0913   7.9692   8.0296   8.1299   8.1912   8.2337   8.2696
     8.3372   8.5090   8.7036  10.9490

          k = 0.0000 0.1443 0.1437 (  1448 PWs)   bands (ev):

   -78.0336 -78.0296 -44.1159 -44.1111 -44.1083 -44.1026 -43.9799 -43.9417
     4.5794   6.7612   7.8891   7.9519   8.1227   8.1498   8.2545   8.2590
     8.4011   8.5731   8.6824   9.5812

          k = 0.0000 0.1443-0.2874 (  1446 PWs)   bands (ev):

   -78.0316 -78.0316 -44.1136 -44.1136 -44.1056 -44.1056 -43.9608 -43.9608
     5.6179   5.6179   7.8955   7.8955   8.1535   8.1535   8.1674   8.1674
     8.5788   8.5788   8.8297   8.8297

          k = 0.0000 0.2887 0.0000 (  1449 PWs)   bands (ev):

   -78.0314 -78.0265 -44.1414 -44.1343 -44.1168 -44.1068 -43.9792 -43.9364
     5.3092   7.3604   7.4269   7.9122   8.0484   8.0493   8.1572   8.6029
     8.6738   8.7244   8.8543  12.6944

          k = 0.0000 0.2887 0.1437 (  1448 PWs)   bands (ev):

   -78.0306 -78.0273 -44.1407 -44.1356 -44.1153 -44.1083 -43.9729 -43.9423
     5.6202   7.1083   7.5236   7.8033   8.1150   8.1614   8.2028   8.5119
     8.6499   8.7632   8.8659  10.5539

          k = 0.0000 0.2887-0.2874 (  1448 PWs)   bands (ev):

   -78.0290 -78.0290 -44.1381 -44.1381 -44.1121 -44.1121 -43.9572 -43.9572
     6.3948   6.3948   7.6940   7.6940   8.2351   8.2351   8.2925   8.2925
     8.7228   8.7228   9.2125   9.2125

          k = 0.0000 0.4330 0.0000 (  1462 PWs)   bands (ev):

   -78.0281 -78.0249 -44.1660 -44.1588 -44.1237 -44.1124 -43.9694 -43.9410
     6.5488   7.0530   7.1505   7.8669   7.9223   8.1683   8.6206   8.7298
     9.0001   9.0431   9.5773  14.1734

          k = 0.0000 0.4330 0.1437 (  1459 PWs)   bands (ev):

   -78.0276 -78.0252 -44.1654 -44.1603 -44.1220 -44.1143 -43.9645 -43.9448
     6.5482   6.9868   7.3387   7.5874   8.0248   8.5860   8.6052   8.8798
     9.0126   9.0514   9.4441  11.9096

          k = 0.0000 0.4330-0.2874 (  1456 PWs)   bands (ev):

   -78.0264 -78.0264 -44.1631 -44.1631 -44.1181 -44.1181 -43.9541 -43.9541
     6.7134   6.7134   7.5104   7.5104   8.2885   8.2885   9.0387   9.0387
     9.0658   9.0658   9.9845   9.9845

          k = 0.0000-0.5774 0.0000 (  1476 PWs)   bands (ev):

   -78.0268 -78.0244 -44.1768 -44.1692 -44.1265 -44.1148 -43.9638 -43.9450
     6.9013   6.9328   7.0023   7.7927   7.8732   8.6573   8.7293   8.7567
     9.1665   9.2158  11.0265  12.1214

          k = 0.0000-0.5774 0.1437 (  1454 PWs)   bands (ev):

   -78.0262 -78.0244 -44.1757 -44.1702 -44.1245 -44.1169 -43.9593 -43.9464
     6.6605   6.9553   7.3086   7.4917   7.9855   8.5878   8.8029   9.1758
     9.2096   9.2676  10.9888  11.9989

          k = 0.0000-0.5774-0.2874 (  1464 PWs)   bands (ev):

   -78.0254 -78.0254 -44.1734 -44.1734 -44.1207 -44.1207 -43.9529 -43.9529
     6.7204   6.7204   7.4320   7.4320   8.2726   8.2726   9.1938   9.1938
     9.2938   9.2938  11.4309  11.4309

          k = 0.1250 0.2165 0.0000 (  1456 PWs)   bands (ev):

   -78.0324 -78.0273 -44.1323 -44.1281 -44.1141 -44.1074 -43.9822 -43.9356
     4.9625   7.4526   7.5975   7.7784   7.9721   8.0460   8.2111   8.5183
     8.5609   8.6982   8.7854  12.1811

          k = 0.1250 0.2165 0.1437 (  1448 PWs)   bands (ev):

   -78.0315 -78.0279 -44.1316 -44.1284 -44.1134 -44.1087 -43.9749 -43.9421
     5.3066   7.1381   7.6319   7.7809   8.0141   8.0851   8.1818   8.4323
     8.6267   8.7144   8.8074  10.2834

          k = 0.1250 0.2165-0.2874 (  1450 PWs)   bands (ev):

   -78.0297 -78.0297 -44.1301 -44.1301 -44.1114 -44.1114 -43.9580 -43.9580
     6.2101   6.2101   7.7555   7.7555   8.0487   8.0487   8.2737   8.2737
     8.7212   8.7212   9.1085   9.1085

          k = 0.1250 0.3608 0.0000 (  1458 PWs)   bands (ev):

   -78.0291 -78.0253 -44.1543 -44.1497 -44.1238 -44.1153 -43.9728 -43.9391
     6.2472   7.2008   7.4081   7.8057   7.8071   8.0506   8.2372   8.6826
     8.8047   9.0489   9.3764  14.0847

          k = 0.1250 0.3608 0.1437 (  1456 PWs)   bands (ev):

   -78.0285 -78.0258 -44.1537 -44.1504 -44.1229 -44.1167 -43.9672 -43.9438
     6.4168   7.1085   7.4786   7.7047   8.0320   8.1012   8.2489   8.5278
     8.9067   9.1157   9.3497  11.4589

          k = 0.1250 0.3608-0.2874 (  1450 PWs)   bands (ev):

   -78.0271 -78.0271 -44.1522 -44.1522 -44.1200 -44.1200 -43.9548 -43.9548
     6.7836   6.7836   7.6496   7.6496   8.1577   8.1577   8.3260   8.3260
     9.1906   9.1906   9.7194   9.7194

          k = 0.1250 0.5052 0.0000 (  1453 PWs)   bands (ev):

   -78.0263 -78.0242 -44.1708 -44.1636 -44.1311 -44.1206 -43.9633 -43.9441
     7.0030   7.0199   7.1915   7.7649   7.8665   8.2390   8.5522   8.6710
     9.1061   9.3077  10.6532  13.4466

          k = 0.1250 0.5052 0.1437 (  1452 PWs)   bands (ev):

   -78.0260 -78.0245 -44.1701 -44.1652 -44.1298 -44.1220 -43.9597 -43.9463
     6.7955   7.1106   7.3982   7.5456   7.8816   8.4608   8.6321   8.6456
     9.1452   9.3885  10.7398  12.8676

          k = 0.1250 0.5052-0.2874 (  1456 PWs)   bands (ev):

   -78.0253 -78.0253 -44.1681 -44.1681 -44.1260 -44.1260 -43.9526 -43.9526
     6.8655   6.8655   7.5383   7.5383   8.1280   8.1280   8.7661   8.7661
     9.3495   9.3495  11.4329  11.4329

          k = 0.2500 0.4330 0.0000 (  1462 PWs)   bands (ev):

   -78.0264 -78.0244 -44.1617 -44.1593 -44.1370 -44.1297 -43.9635 -43.9441
     7.0910   7.2690   7.5335   7.6360   7.6788   7.9058   8.3266   8.6068
     9.0091   9.3606  10.5419  15.3357

          k = 0.2500 0.4330 0.1437 (  1459 PWs)   bands (ev):

   -78.0260 -78.0248 -44.1609 -44.1597 -44.1365 -44.1309 -43.9602 -43.9461
     7.0866   7.1462   7.5331   7.7336   7.8323   7.9746   8.3174   8.4656
     9.1188   9.4033  10.6893  13.1923

          k = 0.2500 0.4330-0.2874 (  1468 PWs)   bands (ev):

   -78.0255 -78.0255 -44.1605 -44.1605 -44.1341 -44.1341 -43.9528 -43.9528
     7.0764   7.0764   7.6740   7.6740   7.9766   7.9766   8.3250   8.3250
     9.3695   9.3695  11.4371  11.4371

          k = 0.2500 0.5774 0.0000 (  1468 PWs)   bands (ev):

   -78.0251 -78.0243 -44.1648 -44.1574 -44.1467 -44.1373 -43.9568 -43.9492
     7.0697   7.4669   7.4756   7.7083   7.7499   7.8826   8.4078   8.5744
     9.1902   9.3435  12.5796  13.0076

          k = 0.2500 0.5774 0.1437 (  1468 PWs)   bands (ev):

   -78.0250 -78.0244 -44.1638 -44.1586 -44.1455 -44.1389 -43.9552 -43.9496
     7.0860   7.4461   7.5216   7.5441   7.7782   8.0519   8.4136   8.4576
     9.2559   9.3905  12.8875  13.1635

          k = 0.2500 0.5774-0.2874 (  1470 PWs)   bands (ev):

   -78.0247 -78.0247 -44.1614 -44.1614 -44.1427 -44.1427 -43.9517 -43.9517
     7.1923   7.1923   7.6225   7.6225   7.9011   7.9011   8.4140   8.4140
     9.3849   9.3849  13.4229  13.4229

 ------ SPIN DOWN ----------


          k = 0.0000 0.0000 0.0000 (  1461 PWs)   bands (ev):

   -74.6403 -74.6331 -40.7586 -40.7586 -40.7504 -40.7504 -40.7303 -40.6627
     4.0669   7.7967   9.9890  10.1158  10.7496  10.7496  10.9100  10.9100
    11.9962  11.9962  12.5692  12.5692

          k = 0.0000 0.0000 0.1437 (  1461 PWs)   bands (ev):

   -74.6390 -74.6343 -40.7576 -40.7576 -40.7516 -40.7516 -40.7210 -40.6724
     4.4605   7.0491   9.7407   9.9036  10.7484  10.7484  10.8648  10.8648
    12.1070  12.1070  12.5098  12.5098

          k = 0.0000 0.0000-0.2874 (  1438 PWs)   bands (ev):

   -74.6364 -74.6364 -40.7545 -40.7545 -40.7545 -40.7545 -40.6962 -40.6962
     5.5702   5.5702   9.7306   9.7306  10.7845  10.7845  10.7845  10.7845
    12.3330  12.3330  12.3330  12.3330

          k = 0.0000 0.1443 0.0000 (  1453 PWs)   bands (ev):

   -74.6387 -74.6319 -40.7705 -40.7627 -40.7621 -40.7531 -40.7264 -40.6633
     4.4695   8.1042   9.9680  10.0442  10.6308  10.7970  10.9249  11.0721
    11.8327  11.8915  12.5985  13.1177

          k = 0.0000 0.1443 0.1437 (  1448 PWs)   bands (ev):

   -74.6376 -74.6329 -40.7698 -40.7642 -40.7607 -40.7541 -40.7172 -40.6722
     4.8571   7.3973   9.6960   9.9719  10.5985  10.7606  10.9187  11.0257
    11.9773  12.0237  12.5168  12.6493

          k = 0.0000 0.1443-0.2874 (  1446 PWs)   bands (ev):

   -74.6352 -74.6352 -40.7674 -40.7674 -40.7575 -40.7575 -40.6945 -40.6945
     5.9483   5.9483   9.7680   9.7680  10.6411  10.6411  10.9481  10.9481
    12.2933  12.2933  12.2980  12.2980

          k = 0.0000 0.2887 0.0000 (  1449 PWs)   bands (ev):

   -74.6349 -74.6295 -40.7997 -40.7916 -40.7705 -40.7591 -40.7168 -40.6660
     5.6186   8.7943   9.7656  10.0020  10.3745  10.8486  11.3835  11.4865
    11.4911  11.6774  12.6328  14.4120

          k = 0.0000 0.2887 0.1437 (  1448 PWs)   bands (ev):

   -74.6341 -74.6303 -40.7993 -40.7934 -40.7688 -40.7608 -40.7087 -40.6727
     5.9798   8.2722   9.6099  10.0573  10.2921  10.6686  11.3515  11.4361
    11.7333  11.8636  12.5069  12.9490

          k = 0.0000 0.2887-0.2874 (  1448 PWs)   bands (ev):

   -74.6322 -74.6322 -40.7968 -40.7968 -40.7650 -40.7650 -40.6900 -40.6900
     6.9919   6.9919   9.8342   9.8342  10.3881  10.3881  11.3671  11.3671
    12.2011  12.2011  12.2323  12.2323

          k = 0.0000 0.4330 0.0000 (  1462 PWs)   bands (ev):

   -74.6311 -74.6274 -40.8288 -40.8203 -40.7786 -40.7655 -40.7049 -40.6714
     7.2593   9.0947   9.6994   9.8379  10.2927  11.1390  11.4765  11.4914
    11.8990  11.9493  12.6422  14.8577

          k = 0.0000 0.4330 0.1437 (  1459 PWs)   bands (ev):

   -74.6306 -74.6279 -40.8285 -40.8225 -40.7766 -40.7677 -40.6988 -40.6755
     7.5329   8.9364   9.5423  10.0050  10.2414  10.9583  11.6022  11.6851
    11.9167  11.9442  12.4705  13.3704

          k = 0.0000 0.4330-0.2874 (  1456 PWs)   bands (ev):

   -74.6292 -74.6292 -40.8263 -40.8263 -40.7721 -40.7721 -40.6862 -40.6862
     8.2332   8.2332   9.7644   9.7644  10.5617  10.5617  11.8116  11.8116
    12.1316  12.1316  12.2375  12.2375

          k = 0.0000-0.5774 0.0000 (  1476 PWs)   bands (ev):

   -74.6295 -74.6268 -40.8413 -40.8324 -40.7818 -40.7683 -40.6981 -40.6759
     8.4092   8.9260   9.6657   9.7066  10.3799  10.9803  11.4195  12.1171
    12.1770  12.3881  12.6419  13.4597

          k = 0.0000-0.5774 0.1437 (  1454 PWs)   bands (ev):

   -74.6289 -74.6269 -40.8407 -40.8342 -40.7796 -40.7706 -40.6929 -40.6775
     8.5036   8.9034   9.5969   9.8230  10.4098  11.3528  11.5682  12.0404
    12.1200  12.1710  12.4335  13.1805

          k = 0.0000-0.5774-0.2874 (  1464 PWs)   bands (ev):

   -74.6280 -74.6280 -40.8384 -40.8384 -40.7751 -40.7751 -40.6847 -40.6847
     8.7208   8.7208   9.7216   9.7216  10.9892  10.9892  11.9516  11.9516
    12.1645  12.1645  12.3946  12.3946

          k = 0.1250 0.2165 0.0000 (  1456 PWs)   bands (ev):

   -74.6360 -74.6303 -40.7889 -40.7841 -40.7674 -40.7597 -40.7201 -40.6651
     5.2478   8.6226   9.8133  10.0204  10.5711  10.5979  11.2584  11.3969
    11.5382  11.7976  12.5919  14.0274

          k = 0.1250 0.2165 0.1437 (  1448 PWs)   bands (ev):

   -74.6351 -74.6310 -40.7885 -40.7849 -40.7666 -40.7612 -40.7112 -40.6725
     5.6195   8.0246   9.6373  10.0434  10.3921  10.5902  11.2302  11.3374
    11.7989  11.9135  12.4812  12.8842

          k = 0.1250 0.2165-0.2874 (  1450 PWs)   bands (ev):

   -74.6331 -74.6331 -40.7870 -40.7870 -40.7642 -40.7642 -40.6910 -40.6910
     6.6654   6.6654   9.8335   9.8335  10.4053  10.4053  11.2606  11.2606
    12.2047  12.2047  12.2717  12.2717

          k = 0.1250 0.3608 0.0000 (  1458 PWs)   bands (ev):

   -74.6323 -74.6280 -40.8149 -40.8095 -40.7789 -40.7689 -40.7089 -40.6693
     6.6711   9.1934   9.7457   9.8085  10.3739  10.9129  11.2204  11.5511
    11.7204  11.9392  12.5707  14.9788

          k = 0.1250 0.3608 0.1437 (  1456 PWs)   bands (ev):

   -74.6316 -74.6286 -40.8147 -40.8108 -40.7778 -40.7706 -40.7019 -40.6743
     6.9968   8.9156   9.5745   9.9390  10.2595  10.6187  11.4579  11.6141
    11.8684  11.9387  12.4410  13.3585

          k = 0.1250 0.3608-0.2874 (  1450 PWs)   bands (ev):

   -74.6300 -74.6300 -40.8134 -40.8134 -40.7744 -40.7744 -40.6870 -40.6870
     7.8803   7.8803   9.8676   9.8676  10.2364  10.2364  11.6579  11.6579
    12.1343  12.1343  12.3431  12.3431

          k = 0.1250 0.5052 0.0000 (  1453 PWs)   bands (ev):

   -74.6291 -74.6267 -40.8345 -40.8260 -40.7874 -40.7752 -40.6978 -40.6752
     8.2431   9.1664   9.6399   9.7847  10.4444  11.0101  11.3261  11.5679
    11.9328  12.5539  12.6025  14.5007

          k = 0.1250 0.5052 0.1437 (  1452 PWs)   bands (ev):

   -74.6287 -74.6270 -40.8341 -40.8282 -40.7859 -40.7769 -40.6932 -40.6774
     8.4211   9.1477   9.5624   9.9530  10.3198  10.8945  11.4700  11.6869
    12.0074  12.2231  12.7071  13.9227

          k = 0.1250 0.5052-0.2874 (  1456 PWs)   bands (ev):

   -74.6279 -74.6279 -40.8320 -40.8320 -40.7816 -40.7816 -40.6843 -40.6843
     8.8267   8.8267   9.7971   9.7971  10.5328  10.5328  11.7479  11.7479
    12.0179  12.0179  12.9976  12.9976

          k = 0.2500 0.4330 0.0000 (  1462 PWs)   bands (ev):

   -74.6291 -74.6268 -40.8237 -40.8206 -40.7942 -40.7858 -40.6981 -40.6752
     8.1241   9.4464   9.5364   9.8758  10.6174  11.0084  11.0370  11.2545
    11.8261  12.4628  12.7109  16.0497

          k = 0.2500 0.4330 0.1437 (  1459 PWs)   bands (ev):

   -74.6287 -74.6272 -40.8231 -40.8216 -40.7939 -40.7874 -40.6935 -40.6771
     8.3684   9.5376   9.6461   9.6618  10.4840  10.5242  11.1937  11.5589
    12.0220  12.1132  12.8737  14.5247

          k = 0.2500 0.4330-0.2874 (  1468 PWs)   bands (ev):

   -74.6281 -74.6281 -40.8229 -40.8229 -40.7912 -40.7912 -40.6844 -40.6844
     8.9745   8.9745   9.8751   9.8751  10.1360  10.1360  11.5757  11.5757
    12.0212  12.0212  13.2896  13.2896

          k = 0.2500 0.5774 0.0000 (  1468 PWs)   bands (ev):

   -74.6276 -74.6266 -40.8272 -40.8185 -40.8055 -40.7947 -40.6903 -40.6811
     9.0332   9.3742   9.4325  10.0023  10.7525  10.9572  11.0252  11.4374
    11.5612  12.4167  13.9166  14.3615

          k = 0.2500 0.5774 0.1437 (  1468 PWs)   bands (ev):

   -74.6275 -74.6268 -40.8263 -40.8203 -40.8046 -40.7968 -40.6876 -40.6811
     9.1915   9.4653   9.5388  10.0030  10.4413  10.5818  11.1576  11.6462
    11.7853  12.0777  14.1986  14.4514

          k = 0.2500 0.5774-0.2874 (  1470 PWs)   bands (ev):

   -74.6272 -74.6272 -40.8239 -40.8239 -40.8014 -40.8014 -40.6830 -40.6830
     9.4605   9.4605   9.9438   9.9438  10.1169  10.1169  11.5244  11.5244
    11.8672  11.8672  14.5613  14.5613

     the Fermi energy is    10.5763 ev

!    total energy              =    -658.40203935 Ry
     Harris-Foulkes estimate   =    -658.40203935 Ry
     estimated scf accuracy    <          4.7E-10 Ry

     total all-electron energy =     -5090.995110 Ry

     The total energy is the sum of the following terms:

     one-electron contribution =    -301.14042724 Ry
     hartree contribution      =     162.42403416 Ry
     xc contribution           =     -69.40039843 Ry
     ewald contribution        =    -298.00767835 Ry
     one-center paw contrib.   =    -152.27725577 Ry
     smearing contrib. (-TS)   =      -0.00031372 Ry

     total magnetization       =     5.80 Bohr mag/cell
     absolute magnetization    =     6.13 Bohr mag/cell

     convergence has been achieved in  18 iterations

     Forces acting on atoms (Ry/au):


     negative rho (up, down):  0.000E+00 9.974E-04
     atom    1 type  1   force =     0.00000000    0.00000000    0.00000000
     atom    2 type  1   force =     0.00000000    0.00000000    0.00000000

     Total force =     0.000000     Total SCF correction =     0.000000


     entering subroutine stress ...


     negative rho (up, down):  0.000E+00 9.974E-04
          total   stress  (Ry/bohr**3)                   (kbar)     P= -291.72
  -0.00210429   0.00000000  -0.00000000       -309.55      0.00     -0.00
   0.00000000  -0.00210429  -0.00000000          0.00   -309.55     -0.00
   0.00000000   0.00000000  -0.00174062          0.00      0.00   -256.05


     Writing output data file Fe_hcp.save

     init_run     :      4.32s CPU      4.38s WALL (       1 calls)
     electrons    :    129.96s CPU    123.46s WALL (       1 calls)
     forces       :      0.71s CPU      0.59s WALL (       1 calls)
     stress       :      2.07s CPU      2.08s WALL (       1 calls)

     Called by init_run:
     wfcinit      :      2.57s CPU      2.51s WALL (       1 calls)
     potinit      :      1.08s CPU      1.15s WALL (       1 calls)

     Called by electrons:
     c_bands      :     94.95s CPU     87.93s WALL (      18 calls)
     sum_band     :     15.48s CPU     15.24s WALL (      18 calls)
     v_of_rho     :      1.08s CPU      1.13s WALL (      19 calls)
     newd         :      1.41s CPU      1.51s WALL (      19 calls)
     mix_rho      :      0.18s CPU      0.23s WALL (      18 calls)

     Called by c_bands:
     init_us_2    :      1.32s CPU      1.35s WALL (    2340 calls)
     cegterg      :     91.09s CPU     83.99s WALL (    1080 calls)

     Called by *egterg:
     h_psi        :     72.32s CPU     70.48s WALL (    3920 calls)
     s_psi        :      3.33s CPU      1.93s WALL (    3920 calls)
     g_psi        :      0.48s CPU      0.49s WALL (    2780 calls)
     cdiaghg      :      3.77s CPU      3.83s WALL (    3860 calls)

     Called by h_psi:
     add_vuspsi   :      3.83s CPU      2.20s WALL (    3920 calls)

     General routines
     calbec       :      5.17s CPU      2.95s WALL (    5120 calls)
     fft          :      0.62s CPU      0.63s WALL (     623 calls)
     ffts         :      0.05s CPU      0.05s WALL (      74 calls)
     fftw         :     69.01s CPU     70.45s WALL (  135620 calls)
     interpolate  :      0.14s CPU      0.15s WALL (      74 calls)
     davcio       :      0.00s CPU      0.03s WALL (      60 calls)


     PAW routines
     PAW_pot      :     17.89s CPU     18.50s WALL (      19 calls)
     PAW_symme    :      0.02s CPU      0.02s WALL (      37 calls)

     PWSCF        :  2m17.54s CPU     2m11.11s WALL


   This run was terminated on:  20:32:28  11May2015            

=------------------------------------------------------------------------------=
   JOB DONE.
=------------------------------------------------------------------------------=
