
     Program PWSCF v.5.1.2 starts on 11May2015 at 23:19:41 

     This program is part of the open-source Quantum ESPRESSO suite
     for quantum simulation of materials; please cite
         "P. Giannozzi et al., J. Phys.:Condens. Matter 21 395502 (2009);
          URL http://www.quantum-espresso.org", 
     in publications or presentations arising from this work. More details at
     http://www.quantum-espresso.org/quote

     Serial version
     Reading input from Fe_HCP_5.38_173_11_6.pw.in

     Current dimensions of program PWSCF are:
     Max number of different atomic species (ntypx) = 10
     Max number of k-points (npk) =  40000
     Max angular momentum in pseudopotentials (lmaxx) =  3
               file Fe.pbe-spn-kjpaw_psl.0.2.1.UPF: wavefunction(s)  3D renormalized

     G-vector sticks info
     --------------------
     sticks:   dense  smooth     PW     G-vecs:    dense   smooth      PW
     Sum         499     397    121                15629    11129    1943

     Generating pointlists ...
     new r_m :   0.4125 (alat units)  2.2193 (a.u.) for type    1


     bravais-lattice index     =            4
     lattice parameter (alat)  =       5.3800  a.u.
     unit-cell volume          =     233.3047 (a.u.)^3
     number of atoms/cell      =            2
     number of atomic types    =            1
     number of electrons       =        32.00
     number of Kohn-Sham states=           20
     kinetic-energy cutoff     =      50.0000  Ry
     charge density cutoff     =     250.0000  Ry
     convergence threshold     =      1.0E-08
     mixing beta               =       0.7000
     number of iterations used =            8  plain     mixing
     Exchange-correlation      =  SLA  PW   PBX  PBC ( 1  4  3  4 0 0)

     celldm(1)=   5.380000  celldm(2)=   0.000000  celldm(3)=   1.730000
     celldm(4)=   0.000000  celldm(5)=   0.000000  celldm(6)=   0.000000

     crystal axes: (cart. coord. in units of alat)
               a(1) = (   1.000000   0.000000   0.000000 )  
               a(2) = (  -0.500000   0.866025   0.000000 )  
               a(3) = (   0.000000   0.000000   1.730000 )  

     reciprocal axes: (cart. coord. in units 2 pi/alat)
               b(1) = (  1.000000  0.577350 -0.000000 )  
               b(2) = (  0.000000  1.154701  0.000000 )  
               b(3) = (  0.000000 -0.000000  0.578035 )  


     PseudoPot. # 1 for Fe read from file:
     ./Fe.pbe-spn-kjpaw_psl.0.2.1.UPF
     MD5 check sum: a0a08122d52b112de96d1da1d7dd020f
     Pseudo is Projector augmented-wave + core cor, Zval = 16.0
     Generated using "atomic" code by A. Dal Corso  v.5.0.2 svn rev. 9415
     Shape of augmentation charge: PSQ
     Using radial grid of 1191 points,  6 beta functions with: 
                l(1) =   0
                l(2) =   0
                l(3) =   1
                l(4) =   1
                l(5) =   2
                l(6) =   2
     Q(r) pseudized with 0 coefficients 


     atomic species   valence    mass     pseudopotential
        Fe            16.00    55.85000     Fe( 1.00)

     Starting magnetic structure 
     atomic species   magnetization
        Fe           0.700

     24 Sym. Ops., with inversion, found (12 have fractional translation)



   Cartesian axes

     site n.     atom                  positions (alat units)
         1           Fe  tau(   1) = (  -0.0000000   0.5773503   0.4325000  )
         2           Fe  tau(   2) = (   0.5000000   0.2886751   1.2975000  )

     number of k points=   128  Marzari-Vanderbilt smearing, width (Ry)=  0.0250

     Number of k-points >= 100: set verbosity='high' to print them.

     Dense  grid:    15629 G-vectors     FFT dimensions: (  27,  27,  48)

     Smooth grid:    11129 G-vectors     FFT dimensions: (  25,  25,  45)

     Largest allocated arrays     est. size (Mb)     dimensions
        Kohn-Sham Wavefunctions         0.43 Mb     (    1420,   20)
        NL pseudopotentials             0.78 Mb     (    1420,   36)
        Each V/rho on FFT grid          1.07 Mb     (   34992,   2)
        Each G-vector array             0.12 Mb     (   15629)
        G-vector shells                 0.01 Mb     (     819)
     Largest temporary arrays     est. size (Mb)     dimensions
        Auxiliary wavefunctions         1.73 Mb     (    1420,   80)
        Each subspace H/S matrix        0.10 Mb     (      80,   80)
        Each <psi_i|beta_j> matrix      0.01 Mb     (      36,   20)
        Arrays for rho mixing           4.27 Mb     (   34992,    8)

     Check: negative/imaginary core charge=   -0.000326    0.000000

     Initial potential from superposition of free atoms

     starting charge   31.99912, renormalised to   32.00000
     Starting wfc are   26 randomized atomic wfcs

     total cpu time spent up to now is        7.6 secs

     Self-consistent Calculation

     iteration #  1     ecut=    50.00 Ry     beta=0.70
     Davidson diagonalization with overlap
     ethr =  1.00E-02,  avg # of iterations =  1.9

     negative rho (up, down):  0.000E+00 1.053E-03

     Magnetic moment per site:
     atom:    1    charge:   14.5952    magn:    5.9347    constr:    0.0000
     atom:    2    charge:   14.5952    magn:    5.9347    constr:    0.0000

     total cpu time spent up to now is       21.0 secs

     total energy              =    -657.97201706 Ry
     Harris-Foulkes estimate   =    -656.24711378 Ry
     estimated scf accuracy    <       2.84577390 Ry

     total magnetization       =     8.00 Bohr mag/cell
     absolute magnetization    =     8.24 Bohr mag/cell

     iteration #  2     ecut=    50.00 Ry     beta=0.70
     Davidson diagonalization with overlap
     ethr =  8.89E-03,  avg # of iterations =  1.5

     negative rho (up, down):  0.000E+00 1.035E-03

     Magnetic moment per site:
     atom:    1    charge:   14.8195    magn:    3.9954    constr:    0.0000
     atom:    2    charge:   14.8195    magn:    3.9954    constr:    0.0000

     total cpu time spent up to now is       39.2 secs

     total energy              =    -658.15683087 Ry
     Harris-Foulkes estimate   =    -658.18296767 Ry
     estimated scf accuracy    <       0.81564068 Ry

     total magnetization       =     6.57 Bohr mag/cell
     absolute magnetization    =     6.86 Bohr mag/cell

     iteration #  3     ecut=    50.00 Ry     beta=0.70
     Davidson diagonalization with overlap
     ethr =  2.55E-03,  avg # of iterations =  3.0

     negative rho (up, down):  0.000E+00 1.206E-03

     Magnetic moment per site:
     atom:    1    charge:   14.7049    magn:    3.0302    constr:    0.0000
     atom:    2    charge:   14.7049    magn:    3.0302    constr:    0.0000

     total cpu time spent up to now is       55.1 secs

     total energy              =    -658.18623659 Ry
     Harris-Foulkes estimate   =    -658.65218435 Ry
     estimated scf accuracy    <       1.30062394 Ry

     total magnetization       =     6.59 Bohr mag/cell
     absolute magnetization    =     6.87 Bohr mag/cell

     iteration #  4     ecut=    50.00 Ry     beta=0.70
     Davidson diagonalization with overlap
     ethr =  2.55E-03,  avg # of iterations =  2.7

     negative rho (up, down):  0.000E+00 1.011E-03

     Magnetic moment per site:
     atom:    1    charge:   14.7594    magn:    3.0184    constr:    0.0000
     atom:    2    charge:   14.7594    magn:    3.0184    constr:    0.0000

     total cpu time spent up to now is       71.8 secs

     total energy              =    -658.41146013 Ry
     Harris-Foulkes estimate   =    -658.41173316 Ry
     estimated scf accuracy    <       0.00645456 Ry

     total magnetization       =     5.89 Bohr mag/cell
     absolute magnetization    =     6.25 Bohr mag/cell

     iteration #  5     ecut=    50.00 Ry     beta=0.70
     Davidson diagonalization with overlap
     ethr =  2.02E-05,  avg # of iterations =  3.2

     negative rho (up, down):  0.000E+00 1.009E-03

     Magnetic moment per site:
     atom:    1    charge:   14.7521    magn:    3.0218    constr:    0.0000
     atom:    2    charge:   14.7521    magn:    3.0218    constr:    0.0000

     total cpu time spent up to now is       93.5 secs

     total energy              =    -658.41821223 Ry
     Harris-Foulkes estimate   =    -658.41737351 Ry
     estimated scf accuracy    <       0.00073859 Ry

     total magnetization       =     5.91 Bohr mag/cell
     absolute magnetization    =     6.24 Bohr mag/cell

     iteration #  6     ecut=    50.00 Ry     beta=0.70
     Davidson diagonalization with overlap
     ethr =  2.31E-06,  avg # of iterations =  2.1

     negative rho (up, down):  0.000E+00 9.599E-04

     Magnetic moment per site:
     atom:    1    charge:   14.7515    magn:    3.0106    constr:    0.0000
     atom:    2    charge:   14.7515    magn:    3.0106    constr:    0.0000

     total cpu time spent up to now is      108.1 secs

     total energy              =    -658.41728212 Ry
     Harris-Foulkes estimate   =    -658.41842585 Ry
     estimated scf accuracy    <       0.00049966 Ry

     total magnetization       =     5.91 Bohr mag/cell
     absolute magnetization    =     6.22 Bohr mag/cell

     iteration #  7     ecut=    50.00 Ry     beta=0.70
     Davidson diagonalization with overlap
     ethr =  1.56E-06,  avg # of iterations =  3.1

     negative rho (up, down):  0.000E+00 9.851E-04

     Magnetic moment per site:
     atom:    1    charge:   14.7521    magn:    3.0176    constr:    0.0000
     atom:    2    charge:   14.7521    magn:    3.0176    constr:    0.0000

     total cpu time spent up to now is      127.4 secs

     total energy              =    -658.41929007 Ry
     Harris-Foulkes estimate   =    -658.41819192 Ry
     estimated scf accuracy    <       0.00028549 Ry

     total magnetization       =     5.90 Bohr mag/cell
     absolute magnetization    =     6.19 Bohr mag/cell

     iteration #  8     ecut=    50.00 Ry     beta=0.70
     Davidson diagonalization with overlap
     ethr =  8.92E-07,  avg # of iterations =  2.3

     negative rho (up, down):  0.000E+00 9.839E-04

     Magnetic moment per site:
     atom:    1    charge:   14.7524    magn:    3.0167    constr:    0.0000
     atom:    2    charge:   14.7524    magn:    3.0167    constr:    0.0000

     total cpu time spent up to now is      144.8 secs

     total energy              =    -658.41939972 Ry
     Harris-Foulkes estimate   =    -658.41941358 Ry
     estimated scf accuracy    <       0.00024869 Ry

     total magnetization       =     5.90 Bohr mag/cell
     absolute magnetization    =     6.19 Bohr mag/cell

     iteration #  9     ecut=    50.00 Ry     beta=0.70
     Davidson diagonalization with overlap
     ethr =  7.77E-07,  avg # of iterations =  1.0

     negative rho (up, down):  0.000E+00 9.805E-04

     Magnetic moment per site:
     atom:    1    charge:   14.7528    magn:    3.0130    constr:    0.0000
     atom:    2    charge:   14.7528    magn:    3.0130    constr:    0.0000

     total cpu time spent up to now is      157.5 secs

     total energy              =    -658.41952764 Ry
     Harris-Foulkes estimate   =    -658.41940659 Ry
     estimated scf accuracy    <       0.00025895 Ry

     total magnetization       =     5.89 Bohr mag/cell
     absolute magnetization    =     6.19 Bohr mag/cell

     iteration # 10     ecut=    50.00 Ry     beta=0.70
     Davidson diagonalization with overlap
     ethr =  7.77E-07,  avg # of iterations =  1.2

     negative rho (up, down):  0.000E+00 9.659E-04

     Magnetic moment per site:
     atom:    1    charge:   14.7542    magn:    2.9992    constr:    0.0000
     atom:    2    charge:   14.7542    magn:    2.9992    constr:    0.0000

     total cpu time spent up to now is      169.6 secs

     total energy              =    -658.41927823 Ry
     Harris-Foulkes estimate   =    -658.41954084 Ry
     estimated scf accuracy    <       0.00014182 Ry

     total magnetization       =     5.89 Bohr mag/cell
     absolute magnetization    =     6.19 Bohr mag/cell

     iteration # 11     ecut=    50.00 Ry     beta=0.70
     Davidson diagonalization with overlap
     ethr =  4.43E-07,  avg # of iterations =  2.9

     negative rho (up, down):  0.000E+00 9.704E-04

     Magnetic moment per site:
     atom:    1    charge:   14.7530    magn:    3.0057    constr:    0.0000
     atom:    2    charge:   14.7530    magn:    3.0057    constr:    0.0000

     total cpu time spent up to now is      185.0 secs

     total energy              =    -658.41968891 Ry
     Harris-Foulkes estimate   =    -658.41944996 Ry
     estimated scf accuracy    <       0.00007877 Ry

     total magnetization       =     5.88 Bohr mag/cell
     absolute magnetization    =     6.16 Bohr mag/cell

     iteration # 12     ecut=    50.00 Ry     beta=0.70
     Davidson diagonalization with overlap
     ethr =  2.46E-07,  avg # of iterations =  2.2

     negative rho (up, down):  0.000E+00 9.678E-04

     Magnetic moment per site:
     atom:    1    charge:   14.7532    magn:    3.0029    constr:    0.0000
     atom:    2    charge:   14.7532    magn:    3.0029    constr:    0.0000

     total cpu time spent up to now is      198.5 secs

     total energy              =    -658.41970496 Ry
     Harris-Foulkes estimate   =    -658.41970909 Ry
     estimated scf accuracy    <       0.00000632 Ry

     total magnetization       =     5.89 Bohr mag/cell
     absolute magnetization    =     6.17 Bohr mag/cell

     iteration # 13     ecut=    50.00 Ry     beta=0.70
     Davidson diagonalization with overlap
     ethr =  1.98E-08,  avg # of iterations =  2.9

     negative rho (up, down):  0.000E+00 9.679E-04

     Magnetic moment per site:
     atom:    1    charge:   14.7533    magn:    3.0029    constr:    0.0000
     atom:    2    charge:   14.7533    magn:    3.0029    constr:    0.0000

     total cpu time spent up to now is      213.3 secs

     total energy              =    -658.41971403 Ry
     Harris-Foulkes estimate   =    -658.41970954 Ry
     estimated scf accuracy    <       0.00000038 Ry

     total magnetization       =     5.88 Bohr mag/cell
     absolute magnetization    =     6.17 Bohr mag/cell

     iteration # 14     ecut=    50.00 Ry     beta=0.70
     Davidson diagonalization with overlap
     ethr =  1.18E-09,  avg # of iterations =  3.0

     negative rho (up, down):  0.000E+00 9.676E-04

     Magnetic moment per site:
     atom:    1    charge:   14.7534    magn:    3.0024    constr:    0.0000
     atom:    2    charge:   14.7534    magn:    3.0024    constr:    0.0000

     total cpu time spent up to now is      231.9 secs

     total energy              =    -658.41971396 Ry
     Harris-Foulkes estimate   =    -658.41971414 Ry
     estimated scf accuracy    <       0.00000003 Ry

     total magnetization       =     5.88 Bohr mag/cell
     absolute magnetization    =     6.17 Bohr mag/cell

     iteration # 15     ecut=    50.00 Ry     beta=0.70
     Davidson diagonalization with overlap
     ethr =  9.93E-11,  avg # of iterations =  4.0

     negative rho (up, down):  0.000E+00 9.677E-04

     Magnetic moment per site:
     atom:    1    charge:   14.7533    magn:    3.0026    constr:    0.0000
     atom:    2    charge:   14.7533    magn:    3.0026    constr:    0.0000

     total cpu time spent up to now is      252.4 secs

     total energy              =    -658.41971469 Ry
     Harris-Foulkes estimate   =    -658.41971410 Ry
     estimated scf accuracy    <       0.00000018 Ry

     total magnetization       =     5.88 Bohr mag/cell
     absolute magnetization    =     6.17 Bohr mag/cell

     iteration # 16     ecut=    50.00 Ry     beta=0.70
     Davidson diagonalization with overlap
     ethr =  9.93E-11,  avg # of iterations =  2.4

     negative rho (up, down):  0.000E+00 9.677E-04

     Magnetic moment per site:
     atom:    1    charge:   14.7533    magn:    3.0026    constr:    0.0000
     atom:    2    charge:   14.7533    magn:    3.0026    constr:    0.0000

     total cpu time spent up to now is      267.2 secs

     End of self-consistent calculation

     Number of k-points >= 100: set verbosity='high' to print the bands.

     the Fermi energy is    11.1947 ev

!    total energy              =    -658.41971474 Ry
     Harris-Foulkes estimate   =    -658.41971471 Ry
     estimated scf accuracy    <          3.9E-09 Ry

     total all-electron energy =     -5091.012786 Ry

     The total energy is the sum of the following terms:

     one-electron contribution =    -293.59651342 Ry
     hartree contribution      =     159.38221261 Ry
     xc contribution           =     -69.42823008 Ry
     ewald contribution        =    -302.49778161 Ry
     one-center paw contrib.   =    -152.27947890 Ry
     smearing contrib. (-TS)   =       0.00007665 Ry

     total magnetization       =     5.88 Bohr mag/cell
     absolute magnetization    =     6.17 Bohr mag/cell

     convergence has been achieved in  16 iterations

     Forces acting on atoms (Ry/au):


     negative rho (up, down):  0.000E+00 9.677E-04
     atom    1 type  1   force =     0.00000000    0.00000000    0.00000000
     atom    2 type  1   force =     0.00000000    0.00000000    0.00000000

     Total force =     0.000000     Total SCF correction =     0.000000


     entering subroutine stress ...


     negative rho (up, down):  0.000E+00 9.677E-04
          total   stress  (Ry/bohr**3)                   (kbar)     P= -284.20
  -0.00203149   0.00000000   0.00000000       -298.84      0.00      0.00
   0.00000000  -0.00203149   0.00000000          0.00   -298.84      0.00
   0.00000000   0.00000000  -0.00173292          0.00      0.00   -254.92


     Writing output data file Fe_hcp.save

     init_run     :      7.14s CPU      7.19s WALL (       1 calls)
     electrons    :    251.32s CPU    259.65s WALL (       1 calls)
     forces       :      1.21s CPU      0.98s WALL (       1 calls)
     stress       :      3.23s CPU      3.36s WALL (       1 calls)

     Called by init_run:
     wfcinit      :      5.39s CPU      5.26s WALL (       1 calls)
     potinit      :      1.12s CPU      1.24s WALL (       1 calls)

     Called by electrons:
     c_bands      :    201.13s CPU    205.10s WALL (      16 calls)
     sum_band     :     30.87s CPU     32.53s WALL (      16 calls)
     v_of_rho     :      1.07s CPU      1.24s WALL (      17 calls)
     newd         :      1.34s CPU      1.52s WALL (      17 calls)
     mix_rho      :      0.17s CPU      0.24s WALL (      16 calls)

     Called by c_bands:
     init_us_2    :      2.69s CPU      2.98s WALL (    4480 calls)
     cegterg      :    193.67s CPU    196.73s WALL (    2048 calls)

     Called by *egterg:
     h_psi        :    154.43s CPU    165.17s WALL (    7222 calls)
     s_psi        :      6.99s CPU      4.60s WALL (    7222 calls)
     g_psi        :      0.90s CPU      0.98s WALL (    5046 calls)
     cdiaghg      :      7.83s CPU      8.74s WALL (    7094 calls)

     Called by h_psi:
     add_vuspsi   :      7.61s CPU      4.93s WALL (    7222 calls)

     General routines
     calbec       :     10.71s CPU      6.74s WALL (    9526 calls)
     fft          :      0.63s CPU      0.68s WALL (     561 calls)
     ffts         :      0.05s CPU      0.06s WALL (      66 calls)
     fftw         :    148.26s CPU    164.99s WALL (  260086 calls)
     interpolate  :      0.15s CPU      0.17s WALL (      66 calls)
     davcio       :      0.00s CPU      0.08s WALL (     128 calls)


     PAW routines
     PAW_pot      :     17.80s CPU     20.16s WALL (      17 calls)
     PAW_symme    :      0.02s CPU      0.02s WALL (      33 calls)

     PWSCF        :  4m23.46s CPU     4m31.99s WALL


   This run was terminated on:  23:24:13  11May2015            

=------------------------------------------------------------------------------=
   JOB DONE.
=------------------------------------------------------------------------------=
