
     Program PWSCF v.5.1.2 starts on 11May2015 at 18: 7:43 

     This program is part of the open-source Quantum ESPRESSO suite
     for quantum simulation of materials; please cite
         "P. Giannozzi et al., J. Phys.:Condens. Matter 21 395502 (2009);
          URL http://www.quantum-espresso.org", 
     in publications or presentations arising from this work. More details at
     http://www.quantum-espresso.org/quote

     Serial version
     Reading input from Fe_HCP_5.4_172_6_3.pw.in

     Current dimensions of program PWSCF are:
     Max number of different atomic species (ntypx) = 10
     Max number of k-points (npk) =  40000
     Max angular momentum in pseudopotentials (lmaxx) =  3
               file Fe.pbe-spn-kjpaw_psl.0.2.1.UPF: wavefunction(s)  3D renormalized

     G-vector sticks info
     --------------------
     sticks:   dense  smooth     PW     G-vecs:    dense   smooth      PW
     Sum         499     397    121                15641    11189    1967

     Generating pointlists ...
     new r_m :   0.4125 (alat units)  2.2275 (a.u.) for type    1


     bravais-lattice index     =            4
     lattice parameter (alat)  =       5.4000  a.u.
     unit-cell volume          =     234.5527 (a.u.)^3
     number of atoms/cell      =            2
     number of atomic types    =            1
     number of electrons       =        32.00
     number of Kohn-Sham states=           20
     kinetic-energy cutoff     =      50.0000  Ry
     charge density cutoff     =     250.0000  Ry
     convergence threshold     =      1.0E-08
     mixing beta               =       0.7000
     number of iterations used =            8  plain     mixing
     Exchange-correlation      =  SLA  PW   PBX  PBC ( 1  4  3  4 0 0)

     celldm(1)=   5.400000  celldm(2)=   0.000000  celldm(3)=   1.720000
     celldm(4)=   0.000000  celldm(5)=   0.000000  celldm(6)=   0.000000

     crystal axes: (cart. coord. in units of alat)
               a(1) = (   1.000000   0.000000   0.000000 )  
               a(2) = (  -0.500000   0.866025   0.000000 )  
               a(3) = (   0.000000   0.000000   1.720000 )  

     reciprocal axes: (cart. coord. in units 2 pi/alat)
               b(1) = (  1.000000  0.577350 -0.000000 )  
               b(2) = (  0.000000  1.154701  0.000000 )  
               b(3) = (  0.000000 -0.000000  0.581395 )  


     PseudoPot. # 1 for Fe read from file:
     ./Fe.pbe-spn-kjpaw_psl.0.2.1.UPF
     MD5 check sum: a0a08122d52b112de96d1da1d7dd020f
     Pseudo is Projector augmented-wave + core cor, Zval = 16.0
     Generated using "atomic" code by A. Dal Corso  v.5.0.2 svn rev. 9415
     Shape of augmentation charge: PSQ
     Using radial grid of 1191 points,  6 beta functions with: 
                l(1) =   0
                l(2) =   0
                l(3) =   1
                l(4) =   1
                l(5) =   2
                l(6) =   2
     Q(r) pseudized with 0 coefficients 


     atomic species   valence    mass     pseudopotential
        Fe            16.00    55.85000     Fe( 1.00)

     Starting magnetic structure 
     atomic species   magnetization
        Fe           0.700

     24 Sym. Ops., with inversion, found (12 have fractional translation)



   Cartesian axes

     site n.     atom                  positions (alat units)
         1           Fe  tau(   1) = (  -0.0000000   0.5773503   0.4300000  )
         2           Fe  tau(   2) = (   0.5000000   0.2886751   1.2900000  )

     number of k points=    28  Marzari-Vanderbilt smearing, width (Ry)=  0.0250
                       cart. coord. in units 2pi/alat
        k(    1) = (   0.0000000   0.0000000   0.0000000), wk =   0.0092593
        k(    2) = (   0.0000000   0.0000000   0.1937984), wk =   0.0185185
        k(    3) = (   0.0000000   0.1924501   0.0000000), wk =   0.0555556
        k(    4) = (   0.0000000   0.1924501   0.1937984), wk =   0.1111111
        k(    5) = (   0.0000000   0.3849002   0.0000000), wk =   0.0555556
        k(    6) = (   0.0000000   0.3849002   0.1937984), wk =   0.1111111
        k(    7) = (   0.0000000  -0.5773503   0.0000000), wk =   0.0277778
        k(    8) = (   0.0000000  -0.5773503   0.1937984), wk =   0.0555556
        k(    9) = (   0.1666667   0.2886751   0.0000000), wk =   0.0555556
        k(   10) = (   0.1666667   0.2886751   0.1937984), wk =   0.1111111
        k(   11) = (   0.1666667   0.4811252   0.0000000), wk =   0.1111111
        k(   12) = (   0.1666667   0.4811252   0.1937984), wk =   0.2222222
        k(   13) = (   0.3333333   0.5773503   0.0000000), wk =   0.0185185
        k(   14) = (   0.3333333   0.5773503   0.1937984), wk =   0.0370370
        k(   15) = (   0.0000000   0.0000000   0.0000000), wk =   0.0092593
        k(   16) = (   0.0000000   0.0000000   0.1937984), wk =   0.0185185
        k(   17) = (   0.0000000   0.1924501   0.0000000), wk =   0.0555556
        k(   18) = (   0.0000000   0.1924501   0.1937984), wk =   0.1111111
        k(   19) = (   0.0000000   0.3849002   0.0000000), wk =   0.0555556
        k(   20) = (   0.0000000   0.3849002   0.1937984), wk =   0.1111111
        k(   21) = (   0.0000000  -0.5773503   0.0000000), wk =   0.0277778
        k(   22) = (   0.0000000  -0.5773503   0.1937984), wk =   0.0555556
        k(   23) = (   0.1666667   0.2886751   0.0000000), wk =   0.0555556
        k(   24) = (   0.1666667   0.2886751   0.1937984), wk =   0.1111111
        k(   25) = (   0.1666667   0.4811252   0.0000000), wk =   0.1111111
        k(   26) = (   0.1666667   0.4811252   0.1937984), wk =   0.2222222
        k(   27) = (   0.3333333   0.5773503   0.0000000), wk =   0.0185185
        k(   28) = (   0.3333333   0.5773503   0.1937984), wk =   0.0370370

     Dense  grid:    15641 G-vectors     FFT dimensions: (  27,  27,  48)

     Smooth grid:    11189 G-vectors     FFT dimensions: (  25,  25,  45)

     Largest allocated arrays     est. size (Mb)     dimensions
        Kohn-Sham Wavefunctions         0.44 Mb     (    1434,   20)
        NL pseudopotentials             0.79 Mb     (    1434,   36)
        Each V/rho on FFT grid          1.07 Mb     (   34992,   2)
        Each G-vector array             0.12 Mb     (   15641)
        G-vector shells                 0.01 Mb     (     819)
     Largest temporary arrays     est. size (Mb)     dimensions
        Auxiliary wavefunctions         1.75 Mb     (    1434,   80)
        Each subspace H/S matrix        0.10 Mb     (      80,   80)
        Each <psi_i|beta_j> matrix      0.01 Mb     (      36,   20)
        Arrays for rho mixing           4.27 Mb     (   34992,    8)

     Check: negative/imaginary core charge=   -0.000321    0.000000

     Initial potential from superposition of free atoms

     starting charge   31.99912, renormalised to   32.00000
     Starting wfc are   26 randomized atomic wfcs

     total cpu time spent up to now is        3.2 secs

     Self-consistent Calculation

     iteration #  1     ecut=    50.00 Ry     beta=0.70
     Davidson diagonalization with overlap
     ethr =  1.00E-02,  avg # of iterations =  2.0

     negative rho (up, down):  0.000E+00 1.061E-03

     Magnetic moment per site:
     atom:    1    charge:   14.6065    magn:    5.9382    constr:    0.0000
     atom:    2    charge:   14.6065    magn:    5.9382    constr:    0.0000

     total cpu time spent up to now is        7.0 secs

     total energy              =    -657.96360214 Ry
     Harris-Foulkes estimate   =    -656.24010006 Ry
     estimated scf accuracy    <       2.84603255 Ry

     total magnetization       =     8.00 Bohr mag/cell
     absolute magnetization    =     8.24 Bohr mag/cell

     iteration #  2     ecut=    50.00 Ry     beta=0.70
     Davidson diagonalization with overlap
     ethr =  8.89E-03,  avg # of iterations =  1.7

     negative rho (up, down):  0.000E+00 1.047E-03

     Magnetic moment per site:
     atom:    1    charge:   14.8295    magn:    4.0124    constr:    0.0000
     atom:    2    charge:   14.8295    magn:    4.0124    constr:    0.0000

     total cpu time spent up to now is       11.3 secs

     total energy              =    -658.15294183 Ry
     Harris-Foulkes estimate   =    -658.18551796 Ry
     estimated scf accuracy    <       0.82094384 Ry

     total magnetization       =     6.59 Bohr mag/cell
     absolute magnetization    =     6.87 Bohr mag/cell

     iteration #  3     ecut=    50.00 Ry     beta=0.70
     Davidson diagonalization with overlap
     ethr =  2.57E-03,  avg # of iterations =  3.2

     negative rho (up, down):  0.000E+00 1.236E-03

     Magnetic moment per site:
     atom:    1    charge:   14.7159    magn:    3.0978    constr:    0.0000
     atom:    2    charge:   14.7159    magn:    3.0978    constr:    0.0000

     total cpu time spent up to now is       15.7 secs

     total energy              =    -658.18508141 Ry
     Harris-Foulkes estimate   =    -658.65089840 Ry
     estimated scf accuracy    <       1.27610508 Ry

     total magnetization       =     6.84 Bohr mag/cell
     absolute magnetization    =     7.07 Bohr mag/cell

     iteration #  4     ecut=    50.00 Ry     beta=0.70
     Davidson diagonalization with overlap
     ethr =  2.57E-03,  avg # of iterations =  2.7

     negative rho (up, down):  0.000E+00 9.635E-04

     Magnetic moment per site:
     atom:    1    charge:   14.7819    magn:    2.9092    constr:    0.0000
     atom:    2    charge:   14.7819    magn:    2.9092    constr:    0.0000

     total cpu time spent up to now is       20.2 secs

     total energy              =    -658.40426752 Ry
     Harris-Foulkes estimate   =    -658.40461325 Ry
     estimated scf accuracy    <       0.00757166 Ry

     total magnetization       =     5.79 Bohr mag/cell
     absolute magnetization    =     6.21 Bohr mag/cell

     iteration #  5     ecut=    50.00 Ry     beta=0.70
     Davidson diagonalization with overlap
     ethr =  2.37E-05,  avg # of iterations =  3.2

     negative rho (up, down):  0.000E+00 9.848E-04

     Magnetic moment per site:
     atom:    1    charge:   14.7643    magn:    2.9376    constr:    0.0000
     atom:    2    charge:   14.7643    magn:    2.9376    constr:    0.0000

     total cpu time spent up to now is       25.8 secs

     total energy              =    -658.41245184 Ry
     Harris-Foulkes estimate   =    -658.41133059 Ry
     estimated scf accuracy    <       0.00090264 Ry

     total magnetization       =     5.64 Bohr mag/cell
     absolute magnetization    =     6.07 Bohr mag/cell

     iteration #  6     ecut=    50.00 Ry     beta=0.70
     Davidson diagonalization with overlap
     ethr =  2.82E-06,  avg # of iterations =  2.1

     negative rho (up, down):  0.000E+00 1.001E-03

     Magnetic moment per site:
     atom:    1    charge:   14.7639    magn:    2.9487    constr:    0.0000
     atom:    2    charge:   14.7639    magn:    2.9487    constr:    0.0000

     total cpu time spent up to now is       29.5 secs

     total energy              =    -658.41184091 Ry
     Harris-Foulkes estimate   =    -658.41276234 Ry
     estimated scf accuracy    <       0.00077038 Ry

     total magnetization       =     5.64 Bohr mag/cell
     absolute magnetization    =     6.07 Bohr mag/cell

     iteration #  7     ecut=    50.00 Ry     beta=0.70
     Davidson diagonalization with overlap
     ethr =  2.41E-06,  avg # of iterations =  1.4

     negative rho (up, down):  0.000E+00 9.181E-04

     Magnetic moment per site:
     atom:    1    charge:   14.7663    magn:    2.8994    constr:    0.0000
     atom:    2    charge:   14.7663    magn:    2.8994    constr:    0.0000

     total cpu time spent up to now is       33.2 secs

     total energy              =    -658.41341722 Ry
     Harris-Foulkes estimate   =    -658.41187206 Ry
     estimated scf accuracy    <       0.00172565 Ry

     total magnetization       =     5.65 Bohr mag/cell
     absolute magnetization    =     6.07 Bohr mag/cell

     iteration #  8     ecut=    50.00 Ry     beta=0.70
     Davidson diagonalization with overlap
     ethr =  2.41E-06,  avg # of iterations =  2.8

     negative rho (up, down):  0.000E+00 9.173E-04

     Magnetic moment per site:
     atom:    1    charge:   14.7667    magn:    2.8987    constr:    0.0000
     atom:    2    charge:   14.7667    magn:    2.8987    constr:    0.0000

     total cpu time spent up to now is       37.3 secs

     total energy              =    -658.41422749 Ry
     Harris-Foulkes estimate   =    -658.41407516 Ry
     estimated scf accuracy    <       0.00019342 Ry

     total magnetization       =     5.59 Bohr mag/cell
     absolute magnetization    =     6.01 Bohr mag/cell

     iteration #  9     ecut=    50.00 Ry     beta=0.70
     Davidson diagonalization with overlap
     ethr =  6.04E-07,  avg # of iterations =  1.9

     negative rho (up, down):  0.000E+00 9.167E-04

     Magnetic moment per site:
     atom:    1    charge:   14.7667    magn:    2.8992    constr:    0.0000
     atom:    2    charge:   14.7667    magn:    2.8992    constr:    0.0000

     total cpu time spent up to now is       40.7 secs

     total energy              =    -658.41415931 Ry
     Harris-Foulkes estimate   =    -658.41425757 Ry
     estimated scf accuracy    <       0.00031060 Ry

     total magnetization       =     5.58 Bohr mag/cell
     absolute magnetization    =     6.00 Bohr mag/cell

     iteration # 10     ecut=    50.00 Ry     beta=0.70
     Davidson diagonalization with overlap
     ethr =  6.04E-07,  avg # of iterations =  1.0

     negative rho (up, down):  0.000E+00 9.152E-04

     Magnetic moment per site:
     atom:    1    charge:   14.7680    magn:    2.8939    constr:    0.0000
     atom:    2    charge:   14.7680    magn:    2.8939    constr:    0.0000

     total cpu time spent up to now is       44.1 secs

     total energy              =    -658.41426196 Ry
     Harris-Foulkes estimate   =    -658.41416603 Ry
     estimated scf accuracy    <       0.00038816 Ry

     total magnetization       =     5.58 Bohr mag/cell
     absolute magnetization    =     6.00 Bohr mag/cell

     iteration # 11     ecut=    50.00 Ry     beta=0.70
     Davidson diagonalization with overlap
     ethr =  6.04E-07,  avg # of iterations =  1.4

     negative rho (up, down):  0.000E+00 9.103E-04

     Magnetic moment per site:
     atom:    1    charge:   14.7688    magn:    2.8853    constr:    0.0000
     atom:    2    charge:   14.7688    magn:    2.8853    constr:    0.0000

     total cpu time spent up to now is       47.4 secs

     total energy              =    -658.41447225 Ry
     Harris-Foulkes estimate   =    -658.41427186 Ry
     estimated scf accuracy    <       0.00029432 Ry

     total magnetization       =     5.58 Bohr mag/cell
     absolute magnetization    =     5.99 Bohr mag/cell

     iteration # 12     ecut=    50.00 Ry     beta=0.70
     Davidson diagonalization with overlap
     ethr =  6.04E-07,  avg # of iterations =  1.8

     negative rho (up, down):  0.000E+00 9.073E-04

     Magnetic moment per site:
     atom:    1    charge:   14.7690    magn:    2.8818    constr:    0.0000
     atom:    2    charge:   14.7690    magn:    2.8818    constr:    0.0000

     total cpu time spent up to now is       50.8 secs

     total energy              =    -658.41453403 Ry
     Harris-Foulkes estimate   =    -658.41449467 Ry
     estimated scf accuracy    <       0.00013789 Ry

     total magnetization       =     5.57 Bohr mag/cell
     absolute magnetization    =     5.98 Bohr mag/cell

     iteration # 13     ecut=    50.00 Ry     beta=0.70
     Davidson diagonalization with overlap
     ethr =  4.31E-07,  avg # of iterations =  1.1

     negative rho (up, down):  0.000E+00 9.054E-04

     Magnetic moment per site:
     atom:    1    charge:   14.7693    magn:    2.8789    constr:    0.0000
     atom:    2    charge:   14.7693    magn:    2.8789    constr:    0.0000

     total cpu time spent up to now is       54.1 secs

     total energy              =    -658.41456891 Ry
     Harris-Foulkes estimate   =    -658.41453945 Ry
     estimated scf accuracy    <       0.00010715 Ry

     total magnetization       =     5.56 Bohr mag/cell
     absolute magnetization    =     5.97 Bohr mag/cell

     iteration # 14     ecut=    50.00 Ry     beta=0.70
     Davidson diagonalization with overlap
     ethr =  3.35E-07,  avg # of iterations =  1.4

     negative rho (up, down):  0.000E+00 8.944E-04

     Magnetic moment per site:
     atom:    1    charge:   14.7705    magn:    2.8645    constr:    0.0000
     atom:    2    charge:   14.7705    magn:    2.8645    constr:    0.0000

     total cpu time spent up to now is       57.5 secs

     total energy              =    -658.41463466 Ry
     Harris-Foulkes estimate   =    -658.41457249 Ry
     estimated scf accuracy    <       0.00008525 Ry

     total magnetization       =     5.56 Bohr mag/cell
     absolute magnetization    =     5.96 Bohr mag/cell

     iteration # 15     ecut=    50.00 Ry     beta=0.70
     Davidson diagonalization with overlap
     ethr =  2.66E-07,  avg # of iterations =  2.8

     negative rho (up, down):  0.000E+00 8.912E-04

     Magnetic moment per site:
     atom:    1    charge:   14.7710    magn:    2.8607    constr:    0.0000
     atom:    2    charge:   14.7710    magn:    2.8607    constr:    0.0000

     total cpu time spent up to now is       61.2 secs

     total energy              =    -658.41468171 Ry
     Harris-Foulkes estimate   =    -658.41467833 Ry
     estimated scf accuracy    <       0.00000093 Ry

     total magnetization       =     5.55 Bohr mag/cell
     absolute magnetization    =     5.94 Bohr mag/cell

     iteration # 16     ecut=    50.00 Ry     beta=0.70
     Davidson diagonalization with overlap
     ethr =  2.91E-09,  avg # of iterations =  4.6

     negative rho (up, down):  0.000E+00 8.894E-04

     Magnetic moment per site:
     atom:    1    charge:   14.7712    magn:    2.8589    constr:    0.0000
     atom:    2    charge:   14.7712    magn:    2.8589    constr:    0.0000

     total cpu time spent up to now is       66.2 secs

     total energy              =    -658.41469311 Ry
     Harris-Foulkes estimate   =    -658.41468927 Ry
     estimated scf accuracy    <       0.00000072 Ry

     total magnetization       =     5.54 Bohr mag/cell
     absolute magnetization    =     5.94 Bohr mag/cell

     iteration # 17     ecut=    50.00 Ry     beta=0.70
     Davidson diagonalization with overlap
     ethr =  2.24E-09,  avg # of iterations =  3.8

     negative rho (up, down):  0.000E+00 8.900E-04

     Magnetic moment per site:
     atom:    1    charge:   14.7710    magn:    2.8599    constr:    0.0000
     atom:    2    charge:   14.7710    magn:    2.8599    constr:    0.0000

     total cpu time spent up to now is       70.4 secs

     total energy              =    -658.41470594 Ry
     Harris-Foulkes estimate   =    -658.41469545 Ry
     estimated scf accuracy    <       0.00000155 Ry

     total magnetization       =     5.54 Bohr mag/cell
     absolute magnetization    =     5.93 Bohr mag/cell

     iteration # 18     ecut=    50.00 Ry     beta=0.70
     Davidson diagonalization with overlap
     ethr =  2.24E-09,  avg # of iterations =  2.1

     negative rho (up, down):  0.000E+00 8.907E-04

     Magnetic moment per site:
     atom:    1    charge:   14.7709    magn:    2.8611    constr:    0.0000
     atom:    2    charge:   14.7709    magn:    2.8611    constr:    0.0000

     total cpu time spent up to now is       73.8 secs

     total energy              =    -658.41470682 Ry
     Harris-Foulkes estimate   =    -658.41470604 Ry
     estimated scf accuracy    <       0.00000012 Ry

     total magnetization       =     5.54 Bohr mag/cell
     absolute magnetization    =     5.93 Bohr mag/cell

     iteration # 19     ecut=    50.00 Ry     beta=0.70
     Davidson diagonalization with overlap
     ethr =  3.72E-10,  avg # of iterations =  3.1

     negative rho (up, down):  0.000E+00 8.907E-04

     Magnetic moment per site:
     atom:    1    charge:   14.7709    magn:    2.8611    constr:    0.0000
     atom:    2    charge:   14.7709    magn:    2.8611    constr:    0.0000

     total cpu time spent up to now is       77.9 secs

     total energy              =    -658.41470702 Ry
     Harris-Foulkes estimate   =    -658.41470698 Ry
     estimated scf accuracy    <       0.00000023 Ry

     total magnetization       =     5.54 Bohr mag/cell
     absolute magnetization    =     5.93 Bohr mag/cell

     iteration # 20     ecut=    50.00 Ry     beta=0.70
     Davidson diagonalization with overlap
     ethr =  3.72E-10,  avg # of iterations =  1.0

     negative rho (up, down):  0.000E+00 8.905E-04

     Magnetic moment per site:
     atom:    1    charge:   14.7709    magn:    2.8608    constr:    0.0000
     atom:    2    charge:   14.7709    magn:    2.8608    constr:    0.0000

     total cpu time spent up to now is       81.3 secs

     total energy              =    -658.41470718 Ry
     Harris-Foulkes estimate   =    -658.41470702 Ry
     estimated scf accuracy    <       0.00000022 Ry

     total magnetization       =     5.54 Bohr mag/cell
     absolute magnetization    =     5.93 Bohr mag/cell

     iteration # 21     ecut=    50.00 Ry     beta=0.70
     Davidson diagonalization with overlap
     ethr =  3.72E-10,  avg # of iterations =  1.8

     negative rho (up, down):  0.000E+00 8.900E-04

     Magnetic moment per site:
     atom:    1    charge:   14.7710    magn:    2.8603    constr:    0.0000
     atom:    2    charge:   14.7710    magn:    2.8603    constr:    0.0000

     total cpu time spent up to now is       84.8 secs

     total energy              =    -658.41470722 Ry
     Harris-Foulkes estimate   =    -658.41470720 Ry
     estimated scf accuracy    <       0.00000009 Ry

     total magnetization       =     5.54 Bohr mag/cell
     absolute magnetization    =     5.93 Bohr mag/cell

     iteration # 22     ecut=    50.00 Ry     beta=0.70
     Davidson diagonalization with overlap
     ethr =  2.71E-10,  avg # of iterations =  2.8

     negative rho (up, down):  0.000E+00 8.900E-04

     Magnetic moment per site:
     atom:    1    charge:   14.7710    magn:    2.8603    constr:    0.0000
     atom:    2    charge:   14.7710    magn:    2.8603    constr:    0.0000

     total cpu time spent up to now is       88.3 secs

     End of self-consistent calculation

 ------ SPIN UP ------------


          k = 0.0000 0.0000 0.0000 (  1377 PWs)   bands (ev):

   -77.4032 -77.3957 -43.4670 -43.4670 -43.4576 -43.4576 -43.3750 -43.3032
     4.2122   7.3810   8.7085   8.7085   8.8383   8.8383   8.8608   8.8608
     9.0063   9.3397   9.3397  10.5887

          k = 0.0000 0.0000 0.1938 (  1377 PWs)   bands (ev):

   -77.4014 -77.3974 -43.4645 -43.4645 -43.4600 -43.4600 -43.3566 -43.3221
     4.9307   6.6588   8.6307   8.6307   8.7247   8.7247   8.9120   9.0931
     9.0931   9.1026   9.3037   9.3037

          k = 0.0000 0.1925 0.0000 (  1377 PWs)   bands (ev):

   -77.4008 -77.3939 -43.4863 -43.4782 -43.4725 -43.4616 -43.3681 -43.3047
     4.9283   7.7873   8.3924   8.5180   8.7180   8.7389   8.7973   8.9706
     9.0778   9.2406   9.3706  12.1473

          k = 0.0000 0.1925 0.1938 (  1396 PWs)   bands (ev):

   -77.3994 -77.3958 -43.4849 -43.4805 -43.4703 -43.4649 -43.3522 -43.3211
     5.6009   7.1633   8.3232   8.4753   8.7022   8.7564   8.8122   8.9188
     9.1441   9.3334   9.3621  10.1265

          k = 0.0000 0.3849 0.0000 (  1400 PWs)   bands (ev):

   -77.3956 -77.3911 -43.5254 -43.5158 -43.4838 -43.4706 -43.3529 -43.3116
     6.6774   7.6836   7.7857   8.5220   8.5349   8.5893   9.0845   9.3947
     9.5428   9.5976   9.9361  14.8360

          k = 0.0000 0.3849 0.1938 (  1402 PWs)   bands (ev):

   -77.3944 -77.3923 -43.5242 -43.5194 -43.4811 -43.4740 -43.3416 -43.3207
     6.9267   7.4470   8.0238   8.2052   8.7150   9.1241   9.1731   9.3548
     9.5774   9.6231   9.8052  11.3890

          k = 0.0000-0.5774 0.0000 (  1408 PWs)   bands (ev):

   -77.3926 -77.3900 -43.5447 -43.5355 -43.4894 -43.4746 -43.3419 -43.3183
     7.4327   7.4543   7.5488   8.3934   8.4436   9.2727   9.3174   9.3971
     9.8422   9.8994  11.6780  12.8290

          k = 0.0000-0.5774 0.1938 (  1400 PWs)   bands (ev):

   -77.3919 -77.3904 -43.5438 -43.5387 -43.4855 -43.4781 -43.3345 -43.3229
     7.1488   7.4183   7.9684   7.9998   8.6580   9.1308   9.5578   9.8599
     9.8870  10.0798  11.6161  12.5262

          k = 0.1667 0.2887 0.0000 (  1398 PWs)   bands (ev):

   -77.3970 -77.3917 -43.5097 -43.5064 -43.4821 -43.4738 -43.3571 -43.3095
     6.2232   7.8772   8.1806   8.2200   8.4190   8.7010   8.7303   9.3284
     9.3433   9.5534   9.8030  14.0700

          k = 0.1667 0.2887 0.1938 (  1391 PWs)   bands (ev):

   -77.3956 -77.3930 -43.5093 -43.5072 -43.4807 -43.4762 -43.3442 -43.3207
     6.7027   7.5640   8.2596   8.2722   8.5781   8.6760   8.7354   9.0532
     9.5798   9.6570   9.7777  11.0305

          k = 0.1667 0.4811 0.0000 (  1407 PWs)   bands (ev):

   -77.3925 -77.3901 -43.5345 -43.5268 -43.4979 -43.4853 -43.3418 -43.3180
     7.5685   7.6363   7.8636   8.3036   8.4724   8.5664   9.0817   9.3069
     9.7216  10.0092  11.2568  14.8769

          k = 0.1667 0.4811 0.1938 (  1407 PWs)   bands (ev):

   -77.3920 -77.3906 -43.5334 -43.5295 -43.4955 -43.4892 -43.3344 -43.3226
     7.3965   7.6448   8.0598   8.2288   8.4376   8.8731   9.1576   9.1672
     9.8618  10.0916  11.5054  13.1577

          k = 0.3333 0.5774 0.0000 (  1434 PWs)   bands (ev):

   -77.3907 -77.3907 -43.5271 -43.5179 -43.5179 -43.5085 -43.3294 -43.3294
     7.6132   8.1745   8.1745   8.2387   8.2854   8.2854   9.0080   9.2217
     9.9430   9.9430  14.1896  14.3822

          k = 0.3333 0.5774 0.1938 (  1410 PWs)   bands (ev):

   -77.3903 -77.3903 -43.5218 -43.5187 -43.5187 -43.5126 -43.3271 -43.3271
     7.8200   7.9636   7.9636   8.1698   8.5103   8.5103   8.9560   9.0107
    10.0268  10.0268  14.7249  14.7249

 ------ SPIN DOWN ----------


          k = 0.0000 0.0000 0.0000 (  1377 PWs)   bands (ev):

   -74.1183 -74.1094 -40.2280 -40.2169 -40.2169 -40.2062 -40.2062 -40.1444
     4.4210   8.2539  10.5245  10.6643  11.2589  11.2589  11.4376  11.4376
    12.5100  12.5100  13.1423  13.1423

          k = 0.0000 0.0000 0.1938 (  1377 PWs)   bands (ev):

   -74.1162 -74.1116 -40.2141 -40.2141 -40.2089 -40.2089 -40.2068 -40.1661
     5.1428   7.0186  10.1970  10.3667  11.2599  11.2599  11.3531  11.3531
    12.7159  12.7159  13.0290  13.0290

          k = 0.0000 0.1925 0.0000 (  1377 PWs)   bands (ev):

   -74.1154 -74.1074 -40.2395 -40.2300 -40.2233 -40.2200 -40.2109 -40.1464
     5.1439   8.7773  10.3943  10.5702  11.0756  11.2791  11.5762  11.7277
    12.2397  12.3269  13.1926  14.1212

          k = 0.0000 0.1925 0.1938 (  1396 PWs)   bands (ev):

   -74.1136 -74.1096 -40.2394 -40.2337 -40.2206 -40.2144 -40.1998 -40.1642
     5.8428   7.6492  10.1523  10.4709  10.9863  11.1689  11.5599  11.6409
    12.5554  12.5957  13.0143  13.1609

          k = 0.0000 0.3849 0.0000 (  1400 PWs)   bands (ev):

   -74.1092 -74.1041 -40.2855 -40.2747 -40.2365 -40.2212 -40.2020 -40.1540
     7.0935   9.5233  10.1538  10.3626  10.7966  11.7532  11.7838  12.0287
    12.2964  12.3670  13.2302  15.6424

          k = 0.0000 0.3849 0.1938 (  1402 PWs)   bands (ev):

   -74.1079 -74.1055 -40.2855 -40.2798 -40.2331 -40.2250 -40.1874 -40.1636
     7.6606   8.9760  10.0580  10.5177  10.6903  11.2109  12.1338  12.2894
    12.3802  12.4830  12.9481  13.4476

          k = 0.0000-0.5774 0.0000 (  1408 PWs)   bands (ev):

   -74.1058 -74.1028 -40.3084 -40.2975 -40.2429 -40.2258 -40.1891 -40.1618
     8.8324   9.3534  10.1148  10.1290  10.9160  11.4914  11.8970  12.6865
    12.7549  12.9971  13.2342  14.1018

          k = 0.0000-0.5774 0.1938 (  1400 PWs)   bands (ev):

   -74.1050 -74.1034 -40.3084 -40.3025 -40.2385 -40.2299 -40.1794 -40.1660
     8.9861   9.2858  10.0589  10.2969  11.0297  11.9682  12.1769  12.5295
    12.6823  12.7435  12.8629  13.5767

          k = 0.1667 0.2887 0.0000 (  1398 PWs)   bands (ev):

   -74.1109 -74.1049 -40.2669 -40.2636 -40.2345 -40.2248 -40.2071 -40.1516
     6.4972   9.5098  10.2223  10.3291  11.0020  11.2278  11.8080  12.1158
    12.1605  12.3067  13.1536  15.5656

          k = 0.1667 0.2887 0.1938 (  1391 PWs)   bands (ev):

   -74.1093 -74.1063 -40.2682 -40.2655 -40.2331 -40.2280 -40.1902 -40.1633
     7.1332   8.7105  10.1163  10.5104  10.7080  10.9284  11.9681  12.1668
    12.4150  12.5216  12.9297  13.4420

          k = 0.1667 0.4811 0.0000 (  1407 PWs)   bands (ev):

   -74.1057 -74.1029 -40.2963 -40.2872 -40.2529 -40.2385 -40.1891 -40.1614
     8.5995   9.7206  10.0570  10.2564  11.0384  11.5100  11.7703  11.8996
    12.4554  13.1017  13.2551  15.7629

          k = 0.1667 0.4811 0.1938 (  1407 PWs)   bands (ev):

   -74.1050 -74.1035 -40.2961 -40.2916 -40.2506 -40.2432 -40.1789 -40.1654
     8.9659   9.6426  10.0632  10.4522  10.7334  11.1018  11.9414  12.3124
    12.5196  12.6713  13.4688  14.4537

          k = 0.3333 0.5774 0.0000 (  1434 PWs)   bands (ev):

   -74.1033 -74.1033 -40.2870 -40.2765 -40.2765 -40.2655 -40.1744 -40.1744
     9.7025   9.7025   9.9200  10.4927  11.4265  11.4265  11.4473  11.9866
    11.9866  12.9832  15.3333  15.4871

          k = 0.3333 0.5774 0.1938 (  1410 PWs)   bands (ev):

   -74.1031 -74.1031 -40.2811 -40.2795 -40.2795 -40.2704 -40.1703 -40.1703
    10.0196  10.0196  10.0748  10.3683  10.8112  10.8112  11.6897  12.3272
    12.3272  12.4005  15.7646  15.7646

     the Fermi energy is    11.1334 ev

!    total energy              =    -658.41470729 Ry
     Harris-Foulkes estimate   =    -658.41470727 Ry
     estimated scf accuracy    <          9.7E-11 Ry

     total all-electron energy =     -5091.007778 Ry

     The total energy is the sum of the following terms:

     one-electron contribution =    -294.53500056 Ry
     hartree contribution      =     159.79806637 Ry
     xc contribution           =     -69.40959212 Ry
     ewald contribution        =    -301.98917383 Ry
     one-center paw contrib.   =    -152.27829114 Ry
     smearing contrib. (-TS)   =      -0.00071602 Ry

     total magnetization       =     5.54 Bohr mag/cell
     absolute magnetization    =     5.93 Bohr mag/cell

     convergence has been achieved in  22 iterations

     Forces acting on atoms (Ry/au):


     negative rho (up, down):  0.000E+00 8.900E-04
     atom    1 type  1   force =     0.00000000   -0.00000000    0.00000000
     atom    2 type  1   force =     0.00000000    0.00000000    0.00000000

     Total force =     0.000000     Total SCF correction =     0.000000


     entering subroutine stress ...


     negative rho (up, down):  0.000E+00 8.900E-04
          total   stress  (Ry/bohr**3)                   (kbar)     P= -295.87
  -0.00219536   0.00000000  -0.00000000       -322.95      0.00     -0.00
   0.00000000  -0.00219536  -0.00000000          0.00   -322.95     -0.00
   0.00000000   0.00000000  -0.00164304          0.00      0.00   -241.70


     Writing output data file Fe_hcp.save

     init_run     :      2.84s CPU      2.81s WALL (       1 calls)
     electrons    :     86.82s CPU     85.16s WALL (       1 calls)
     forces       :      0.50s CPU      0.44s WALL (       1 calls)
     stress       :      1.51s CPU      1.54s WALL (       1 calls)

     Called by init_run:
     wfcinit      :      1.16s CPU      1.09s WALL (       1 calls)
     potinit      :      1.06s CPU      1.09s WALL (       1 calls)

     Called by electrons:
     c_bands      :     51.24s CPU     48.41s WALL (      22 calls)
     sum_band     :     10.64s CPU     10.62s WALL (      22 calls)
     v_of_rho     :      1.38s CPU      1.45s WALL (      23 calls)
     newd         :      1.68s CPU      1.77s WALL (      23 calls)
     mix_rho      :      0.24s CPU      0.31s WALL (      22 calls)

     Called by c_bands:
     init_us_2    :      0.73s CPU      0.75s WALL (    1316 calls)
     cegterg      :     49.11s CPU     46.21s WALL (     616 calls)

     Called by *egterg:
     h_psi        :     39.28s CPU     38.87s WALL (    2033 calls)
     s_psi        :      1.79s CPU      1.05s WALL (    2033 calls)
     g_psi        :      0.24s CPU      0.24s WALL (    1389 calls)
     cdiaghg      :      1.95s CPU      2.02s WALL (    2005 calls)

     Called by h_psi:
     add_vuspsi   :      2.05s CPU      1.22s WALL (    2033 calls)

     General routines
     calbec       :      2.79s CPU      1.62s WALL (    2705 calls)
     fft          :      0.79s CPU      0.81s WALL (     747 calls)
     ffts         :      0.07s CPU      0.07s WALL (      90 calls)
     fftw         :     38.13s CPU     39.42s WALL (   72334 calls)
     interpolate  :      0.18s CPU      0.19s WALL (      90 calls)
     davcio       :      0.00s CPU      0.01s WALL (      28 calls)


     PAW routines
     PAW_pot      :     22.62s CPU     23.59s WALL (      23 calls)
     PAW_symme    :      0.03s CPU      0.03s WALL (      45 calls)

     PWSCF        :  1m32.11s CPU     1m30.47s WALL


   This run was terminated on:  18: 9:14  11May2015            

=------------------------------------------------------------------------------=
   JOB DONE.
=------------------------------------------------------------------------------=
