
     Program PWSCF v.5.1.2 starts on 11May2015 at 22:52:36 

     This program is part of the open-source Quantum ESPRESSO suite
     for quantum simulation of materials; please cite
         "P. Giannozzi et al., J. Phys.:Condens. Matter 21 395502 (2009);
          URL http://www.quantum-espresso.org", 
     in publications or presentations arising from this work. More details at
     http://www.quantum-espresso.org/quote

     Serial version
     Reading input from Fe_HCP_5.45_172_10_5.pw.in

     Current dimensions of program PWSCF are:
     Max number of different atomic species (ntypx) = 10
     Max number of k-points (npk) =  40000
     Max angular momentum in pseudopotentials (lmaxx) =  3
               file Fe.pbe-spn-kjpaw_psl.0.2.1.UPF: wavefunction(s)  3D renormalized

     G-vector sticks info
     --------------------
     sticks:   dense  smooth     PW     G-vecs:    dense   smooth      PW
     Sum         511     421    121                16157    11539    1967

     Generating pointlists ...
     new r_m :   0.4125 (alat units)  2.2481 (a.u.) for type    1


     bravais-lattice index     =            4
     lattice parameter (alat)  =       5.4500  a.u.
     unit-cell volume          =     241.1285 (a.u.)^3
     number of atoms/cell      =            2
     number of atomic types    =            1
     number of electrons       =        32.00
     number of Kohn-Sham states=           20
     kinetic-energy cutoff     =      50.0000  Ry
     charge density cutoff     =     250.0000  Ry
     convergence threshold     =      1.0E-08
     mixing beta               =       0.7000
     number of iterations used =            8  plain     mixing
     Exchange-correlation      =  SLA  PW   PBX  PBC ( 1  4  3  4 0 0)

     celldm(1)=   5.450000  celldm(2)=   0.000000  celldm(3)=   1.720000
     celldm(4)=   0.000000  celldm(5)=   0.000000  celldm(6)=   0.000000

     crystal axes: (cart. coord. in units of alat)
               a(1) = (   1.000000   0.000000   0.000000 )  
               a(2) = (  -0.500000   0.866025   0.000000 )  
               a(3) = (   0.000000   0.000000   1.720000 )  

     reciprocal axes: (cart. coord. in units 2 pi/alat)
               b(1) = (  1.000000  0.577350 -0.000000 )  
               b(2) = (  0.000000  1.154701  0.000000 )  
               b(3) = (  0.000000 -0.000000  0.581395 )  


     PseudoPot. # 1 for Fe read from file:
     ./Fe.pbe-spn-kjpaw_psl.0.2.1.UPF
     MD5 check sum: a0a08122d52b112de96d1da1d7dd020f
     Pseudo is Projector augmented-wave + core cor, Zval = 16.0
     Generated using "atomic" code by A. Dal Corso  v.5.0.2 svn rev. 9415
     Shape of augmentation charge: PSQ
     Using radial grid of 1191 points,  6 beta functions with: 
                l(1) =   0
                l(2) =   0
                l(3) =   1
                l(4) =   1
                l(5) =   2
                l(6) =   2
     Q(r) pseudized with 0 coefficients 


     atomic species   valence    mass     pseudopotential
        Fe            16.00    55.85000     Fe( 1.00)

     Starting magnetic structure 
     atomic species   magnetization
        Fe           0.700

     24 Sym. Ops., with inversion, found (12 have fractional translation)



   Cartesian axes

     site n.     atom                  positions (alat units)
         1           Fe  tau(   1) = (  -0.0000000   0.5773503   0.4300000  )
         2           Fe  tau(   2) = (   0.5000000   0.2886751   1.2900000  )

     number of k points=    84  Marzari-Vanderbilt smearing, width (Ry)=  0.0250
                       cart. coord. in units 2pi/alat
        k(    1) = (   0.0000000   0.0000000   0.0000000), wk =   0.0020000
        k(    2) = (   0.0000000   0.0000000   0.1162791), wk =   0.0040000
        k(    3) = (   0.0000000   0.0000000   0.2325581), wk =   0.0040000
        k(    4) = (   0.0000000   0.1154701   0.0000000), wk =   0.0120000
        k(    5) = (   0.0000000   0.1154701   0.1162791), wk =   0.0240000
        k(    6) = (   0.0000000   0.1154701   0.2325581), wk =   0.0240000
        k(    7) = (   0.0000000   0.2309401   0.0000000), wk =   0.0120000
        k(    8) = (   0.0000000   0.2309401   0.1162791), wk =   0.0240000
        k(    9) = (   0.0000000   0.2309401   0.2325581), wk =   0.0240000
        k(   10) = (   0.0000000   0.3464102   0.0000000), wk =   0.0120000
        k(   11) = (   0.0000000   0.3464102   0.1162791), wk =   0.0240000
        k(   12) = (   0.0000000   0.3464102   0.2325581), wk =   0.0240000
        k(   13) = (   0.0000000   0.4618802   0.0000000), wk =   0.0120000
        k(   14) = (   0.0000000   0.4618802   0.1162791), wk =   0.0240000
        k(   15) = (   0.0000000   0.4618802   0.2325581), wk =   0.0240000
        k(   16) = (   0.0000000  -0.5773503   0.0000000), wk =   0.0060000
        k(   17) = (   0.0000000  -0.5773503   0.1162791), wk =   0.0120000
        k(   18) = (   0.0000000  -0.5773503   0.2325581), wk =   0.0120000
        k(   19) = (   0.1000000   0.1732051   0.0000000), wk =   0.0120000
        k(   20) = (   0.1000000   0.1732051   0.1162791), wk =   0.0240000
        k(   21) = (   0.1000000   0.1732051   0.2325581), wk =   0.0240000
        k(   22) = (   0.1000000   0.2886751   0.0000000), wk =   0.0240000
        k(   23) = (   0.1000000   0.2886751   0.1162791), wk =   0.0480000
        k(   24) = (   0.1000000   0.2886751   0.2325581), wk =   0.0480000
        k(   25) = (   0.1000000   0.4041452   0.0000000), wk =   0.0240000
        k(   26) = (   0.1000000   0.4041452   0.1162791), wk =   0.0480000
        k(   27) = (   0.1000000   0.4041452   0.2325581), wk =   0.0480000
        k(   28) = (   0.1000000   0.5196152   0.0000000), wk =   0.0240000
        k(   29) = (   0.1000000   0.5196152   0.1162791), wk =   0.0480000
        k(   30) = (   0.1000000   0.5196152   0.2325581), wk =   0.0480000
        k(   31) = (   0.2000000   0.3464102   0.0000000), wk =   0.0120000
        k(   32) = (   0.2000000   0.3464102   0.1162791), wk =   0.0240000
        k(   33) = (   0.2000000   0.3464102   0.2325581), wk =   0.0240000
        k(   34) = (   0.2000000   0.4618802   0.0000000), wk =   0.0240000
        k(   35) = (   0.2000000   0.4618802   0.1162791), wk =   0.0480000
        k(   36) = (   0.2000000   0.4618802   0.2325581), wk =   0.0480000
        k(   37) = (   0.2000000   0.5773503   0.0000000), wk =   0.0120000
        k(   38) = (   0.2000000   0.5773503   0.1162791), wk =   0.0240000
        k(   39) = (   0.2000000   0.5773503   0.2325581), wk =   0.0240000
        k(   40) = (   0.3000000   0.5196152   0.0000000), wk =   0.0120000
        k(   41) = (   0.3000000   0.5196152   0.1162791), wk =   0.0240000
        k(   42) = (   0.3000000   0.5196152   0.2325581), wk =   0.0240000
        k(   43) = (   0.0000000   0.0000000   0.0000000), wk =   0.0020000
        k(   44) = (   0.0000000   0.0000000   0.1162791), wk =   0.0040000
        k(   45) = (   0.0000000   0.0000000   0.2325581), wk =   0.0040000
        k(   46) = (   0.0000000   0.1154701   0.0000000), wk =   0.0120000
        k(   47) = (   0.0000000   0.1154701   0.1162791), wk =   0.0240000
        k(   48) = (   0.0000000   0.1154701   0.2325581), wk =   0.0240000
        k(   49) = (   0.0000000   0.2309401   0.0000000), wk =   0.0120000
        k(   50) = (   0.0000000   0.2309401   0.1162791), wk =   0.0240000
        k(   51) = (   0.0000000   0.2309401   0.2325581), wk =   0.0240000
        k(   52) = (   0.0000000   0.3464102   0.0000000), wk =   0.0120000
        k(   53) = (   0.0000000   0.3464102   0.1162791), wk =   0.0240000
        k(   54) = (   0.0000000   0.3464102   0.2325581), wk =   0.0240000
        k(   55) = (   0.0000000   0.4618802   0.0000000), wk =   0.0120000
        k(   56) = (   0.0000000   0.4618802   0.1162791), wk =   0.0240000
        k(   57) = (   0.0000000   0.4618802   0.2325581), wk =   0.0240000
        k(   58) = (   0.0000000  -0.5773503   0.0000000), wk =   0.0060000
        k(   59) = (   0.0000000  -0.5773503   0.1162791), wk =   0.0120000
        k(   60) = (   0.0000000  -0.5773503   0.2325581), wk =   0.0120000
        k(   61) = (   0.1000000   0.1732051   0.0000000), wk =   0.0120000
        k(   62) = (   0.1000000   0.1732051   0.1162791), wk =   0.0240000
        k(   63) = (   0.1000000   0.1732051   0.2325581), wk =   0.0240000
        k(   64) = (   0.1000000   0.2886751   0.0000000), wk =   0.0240000
        k(   65) = (   0.1000000   0.2886751   0.1162791), wk =   0.0480000
        k(   66) = (   0.1000000   0.2886751   0.2325581), wk =   0.0480000
        k(   67) = (   0.1000000   0.4041452   0.0000000), wk =   0.0240000
        k(   68) = (   0.1000000   0.4041452   0.1162791), wk =   0.0480000
        k(   69) = (   0.1000000   0.4041452   0.2325581), wk =   0.0480000
        k(   70) = (   0.1000000   0.5196152   0.0000000), wk =   0.0240000
        k(   71) = (   0.1000000   0.5196152   0.1162791), wk =   0.0480000
        k(   72) = (   0.1000000   0.5196152   0.2325581), wk =   0.0480000
        k(   73) = (   0.2000000   0.3464102   0.0000000), wk =   0.0120000
        k(   74) = (   0.2000000   0.3464102   0.1162791), wk =   0.0240000
        k(   75) = (   0.2000000   0.3464102   0.2325581), wk =   0.0240000
        k(   76) = (   0.2000000   0.4618802   0.0000000), wk =   0.0240000
        k(   77) = (   0.2000000   0.4618802   0.1162791), wk =   0.0480000
        k(   78) = (   0.2000000   0.4618802   0.2325581), wk =   0.0480000
        k(   79) = (   0.2000000   0.5773503   0.0000000), wk =   0.0120000
        k(   80) = (   0.2000000   0.5773503   0.1162791), wk =   0.0240000
        k(   81) = (   0.2000000   0.5773503   0.2325581), wk =   0.0240000
        k(   82) = (   0.3000000   0.5196152   0.0000000), wk =   0.0120000
        k(   83) = (   0.3000000   0.5196152   0.1162791), wk =   0.0240000
        k(   84) = (   0.3000000   0.5196152   0.2325581), wk =   0.0240000

     Dense  grid:    16157 G-vectors     FFT dimensions: (  27,  27,  48)

     Smooth grid:    11539 G-vectors     FFT dimensions: (  25,  25,  45)

     Largest allocated arrays     est. size (Mb)     dimensions
        Kohn-Sham Wavefunctions         0.44 Mb     (    1456,   20)
        NL pseudopotentials             0.80 Mb     (    1456,   36)
        Each V/rho on FFT grid          1.07 Mb     (   34992,   2)
        Each G-vector array             0.12 Mb     (   16157)
        G-vector shells                 0.01 Mb     (     841)
     Largest temporary arrays     est. size (Mb)     dimensions
        Auxiliary wavefunctions         1.78 Mb     (    1456,   80)
        Each subspace H/S matrix        0.10 Mb     (      80,   80)
        Each <psi_i|beta_j> matrix      0.01 Mb     (      36,   20)
        Arrays for rho mixing           4.27 Mb     (   34992,    8)

     Check: negative/imaginary core charge=   -0.000318    0.000000

     Initial potential from superposition of free atoms

     starting charge   31.99912, renormalised to   32.00000
     Starting wfc are   26 randomized atomic wfcs

     total cpu time spent up to now is        7.8 secs

     Self-consistent Calculation

     iteration #  1     ecut=    50.00 Ry     beta=0.70
     Davidson diagonalization with overlap
     ethr =  1.00E-02,  avg # of iterations =  2.0

     negative rho (up, down):  0.000E+00 1.103E-03

     Magnetic moment per site:
     atom:    1    charge:   14.6233    magn:    5.9502    constr:    0.0000
     atom:    2    charge:   14.6233    magn:    5.9502    constr:    0.0000

     total cpu time spent up to now is       20.6 secs

     total energy              =    -657.96237857 Ry
     Harris-Foulkes estimate   =    -656.24818196 Ry
     estimated scf accuracy    <       2.83649583 Ry

     total magnetization       =     8.00 Bohr mag/cell
     absolute magnetization    =     8.27 Bohr mag/cell

     iteration #  2     ecut=    50.00 Ry     beta=0.70
     Davidson diagonalization with overlap
     ethr =  8.86E-03,  avg # of iterations =  1.6

     negative rho (up, down):  0.000E+00 1.077E-03

     Magnetic moment per site:
     atom:    1    charge:   14.8482    magn:    4.0407    constr:    0.0000
     atom:    2    charge:   14.8482    magn:    4.0407    constr:    0.0000

     total cpu time spent up to now is       31.6 secs

     total energy              =    -658.13109217 Ry
     Harris-Foulkes estimate   =    -658.17899523 Ry
     estimated scf accuracy    <       0.84817587 Ry

     total magnetization       =     6.57 Bohr mag/cell
     absolute magnetization    =     6.86 Bohr mag/cell

     iteration #  3     ecut=    50.00 Ry     beta=0.70
     Davidson diagonalization with overlap
     ethr =  2.65E-03,  avg # of iterations =  3.1

     negative rho (up, down):  0.000E+00 1.265E-03

     Magnetic moment per site:
     atom:    1    charge:   14.7348    magn:    3.0588    constr:    0.0000
     atom:    2    charge:   14.7348    magn:    3.0588    constr:    0.0000

     total cpu time spent up to now is       43.5 secs

     total energy              =    -658.16922209 Ry
     Harris-Foulkes estimate   =    -658.64926568 Ry
     estimated scf accuracy    <       1.34580274 Ry

     total magnetization       =     6.72 Bohr mag/cell
     absolute magnetization    =     7.00 Bohr mag/cell

     iteration #  4     ecut=    50.00 Ry     beta=0.70
     Davidson diagonalization with overlap
     ethr =  2.65E-03,  avg # of iterations =  2.7

     negative rho (up, down):  0.000E+00 1.043E-03

     Magnetic moment per site:
     atom:    1    charge:   14.7936    magn:    3.0047    constr:    0.0000
     atom:    2    charge:   14.7936    magn:    3.0047    constr:    0.0000

     total cpu time spent up to now is       54.6 secs

     total energy              =    -658.39820041 Ry
     Harris-Foulkes estimate   =    -658.39822405 Ry
     estimated scf accuracy    <       0.00677847 Ry

     total magnetization       =     5.87 Bohr mag/cell
     absolute magnetization    =     6.27 Bohr mag/cell

     iteration #  5     ecut=    50.00 Ry     beta=0.70
     Davidson diagonalization with overlap
     ethr =  2.12E-05,  avg # of iterations =  3.3

     negative rho (up, down):  0.000E+00 1.058E-03

     Magnetic moment per site:
     atom:    1    charge:   14.7836    magn:    3.0085    constr:    0.0000
     atom:    2    charge:   14.7836    magn:    3.0085    constr:    0.0000

     total cpu time spent up to now is       69.6 secs

     total energy              =    -658.40558415 Ry
     Harris-Foulkes estimate   =    -658.40440365 Ry
     estimated scf accuracy    <       0.00083159 Ry

     total magnetization       =     5.85 Bohr mag/cell
     absolute magnetization    =     6.23 Bohr mag/cell

     iteration #  6     ecut=    50.00 Ry     beta=0.70
     Davidson diagonalization with overlap
     ethr =  2.60E-06,  avg # of iterations =  2.2

     negative rho (up, down):  0.000E+00 1.109E-03

     Magnetic moment per site:
     atom:    1    charge:   14.7821    magn:    3.0324    constr:    0.0000
     atom:    2    charge:   14.7821    magn:    3.0324    constr:    0.0000

     total cpu time spent up to now is       79.6 secs

     total energy              =    -658.40165401 Ry
     Harris-Foulkes estimate   =    -658.40587506 Ry
     estimated scf accuracy    <       0.00069141 Ry

     total magnetization       =     5.84 Bohr mag/cell
     absolute magnetization    =     6.21 Bohr mag/cell

     iteration #  7     ecut=    50.00 Ry     beta=0.70
     Davidson diagonalization with overlap
     ethr =  2.16E-06,  avg # of iterations =  2.2

     negative rho (up, down):  0.000E+00 1.026E-03

     Magnetic moment per site:
     atom:    1    charge:   14.7821    magn:    2.9928    constr:    0.0000
     atom:    2    charge:   14.7821    magn:    2.9928    constr:    0.0000

     total cpu time spent up to now is       91.4 secs

     total energy              =    -658.40577335 Ry
     Harris-Foulkes estimate   =    -658.40187241 Ry
     estimated scf accuracy    <       0.00370808 Ry

     total magnetization       =     5.86 Bohr mag/cell
     absolute magnetization    =     6.23 Bohr mag/cell

     iteration #  8     ecut=    50.00 Ry     beta=0.70
     Davidson diagonalization with overlap
     ethr =  2.16E-06,  avg # of iterations =  3.0

     negative rho (up, down):  0.000E+00 1.029E-03

     Magnetic moment per site:
     atom:    1    charge:   14.7840    magn:    2.9907    constr:    0.0000
     atom:    2    charge:   14.7840    magn:    2.9907    constr:    0.0000

     total cpu time spent up to now is      104.2 secs

     total energy              =    -658.40719760 Ry
     Harris-Foulkes estimate   =    -658.40692264 Ry
     estimated scf accuracy    <       0.00019781 Ry

     total magnetization       =     5.81 Bohr mag/cell
     absolute magnetization    =     6.16 Bohr mag/cell

     iteration #  9     ecut=    50.00 Ry     beta=0.70
     Davidson diagonalization with overlap
     ethr =  6.18E-07,  avg # of iterations =  1.8

     negative rho (up, down):  0.000E+00 1.018E-03

     Magnetic moment per site:
     atom:    1    charge:   14.7854    magn:    2.9772    constr:    0.0000
     atom:    2    charge:   14.7854    magn:    2.9772    constr:    0.0000

     total cpu time spent up to now is      113.8 secs

     total energy              =    -658.40741423 Ry
     Harris-Foulkes estimate   =    -658.40723336 Ry
     estimated scf accuracy    <       0.00034982 Ry

     total magnetization       =     5.80 Bohr mag/cell
     absolute magnetization    =     6.15 Bohr mag/cell

     iteration # 10     ecut=    50.00 Ry     beta=0.70
     Davidson diagonalization with overlap
     ethr =  6.18E-07,  avg # of iterations =  2.3

     negative rho (up, down):  0.000E+00 1.002E-03

     Magnetic moment per site:
     atom:    1    charge:   14.7865    magn:    2.9621    constr:    0.0000
     atom:    2    charge:   14.7865    magn:    2.9621    constr:    0.0000

     total cpu time spent up to now is      123.8 secs

     total energy              =    -658.40741468 Ry
     Harris-Foulkes estimate   =    -658.40748263 Ry
     estimated scf accuracy    <       0.00012069 Ry

     total magnetization       =     5.79 Bohr mag/cell
     absolute magnetization    =     6.14 Bohr mag/cell

     iteration # 11     ecut=    50.00 Ry     beta=0.70
     Davidson diagonalization with overlap
     ethr =  3.77E-07,  avg # of iterations =  2.9

     negative rho (up, down):  0.000E+00 9.960E-04

     Magnetic moment per site:
     atom:    1    charge:   14.7869    magn:    2.9584    constr:    0.0000
     atom:    2    charge:   14.7869    magn:    2.9584    constr:    0.0000

     total cpu time spent up to now is      135.1 secs

     total energy              =    -658.40756162 Ry
     Harris-Foulkes estimate   =    -658.40750724 Ry
     estimated scf accuracy    <       0.00000338 Ry

     total magnetization       =     5.78 Bohr mag/cell
     absolute magnetization    =     6.11 Bohr mag/cell

     iteration # 12     ecut=    50.00 Ry     beta=0.70
     Davidson diagonalization with overlap
     ethr =  1.06E-08,  avg # of iterations =  4.0

     negative rho (up, down):  0.000E+00 9.986E-04

     Magnetic moment per site:
     atom:    1    charge:   14.7868    magn:    2.9597    constr:    0.0000
     atom:    2    charge:   14.7868    magn:    2.9597    constr:    0.0000

     total cpu time spent up to now is      149.9 secs

     total energy              =    -658.40762828 Ry
     Harris-Foulkes estimate   =    -658.40757573 Ry
     estimated scf accuracy    <       0.00000849 Ry

     total magnetization       =     5.77 Bohr mag/cell
     absolute magnetization    =     6.11 Bohr mag/cell

     iteration # 13     ecut=    50.00 Ry     beta=0.70
     Davidson diagonalization with overlap
     ethr =  1.06E-08,  avg # of iterations =  2.2

     negative rho (up, down):  0.000E+00 9.990E-04

     Magnetic moment per site:
     atom:    1    charge:   14.7867    magn:    2.9600    constr:    0.0000
     atom:    2    charge:   14.7867    magn:    2.9600    constr:    0.0000

     total cpu time spent up to now is      161.3 secs

     total energy              =    -658.40763637 Ry
     Harris-Foulkes estimate   =    -658.40762935 Ry
     estimated scf accuracy    <       0.00000039 Ry

     total magnetization       =     5.77 Bohr mag/cell
     absolute magnetization    =     6.10 Bohr mag/cell

     iteration # 14     ecut=    50.00 Ry     beta=0.70
     Davidson diagonalization with overlap
     ethr =  1.23E-09,  avg # of iterations =  2.8

     negative rho (up, down):  0.000E+00 9.990E-04

     Magnetic moment per site:
     atom:    1    charge:   14.7867    magn:    2.9600    constr:    0.0000
     atom:    2    charge:   14.7867    magn:    2.9600    constr:    0.0000

     total cpu time spent up to now is      172.6 secs

     total energy              =    -658.40763780 Ry
     Harris-Foulkes estimate   =    -658.40763663 Ry
     estimated scf accuracy    <       0.00000001 Ry

     total magnetization       =     5.77 Bohr mag/cell
     absolute magnetization    =     6.10 Bohr mag/cell

     iteration # 15     ecut=    50.00 Ry     beta=0.70
     Davidson diagonalization with overlap
     ethr =  4.24E-11,  avg # of iterations =  4.0

     negative rho (up, down):  0.000E+00 9.988E-04

     Magnetic moment per site:
     atom:    1    charge:   14.7868    magn:    2.9598    constr:    0.0000
     atom:    2    charge:   14.7868    magn:    2.9598    constr:    0.0000

     total cpu time spent up to now is      186.4 secs

     total energy              =    -658.40763802 Ry
     Harris-Foulkes estimate   =    -658.40763786 Ry
     estimated scf accuracy    <       0.00000002 Ry

     total magnetization       =     5.77 Bohr mag/cell
     absolute magnetization    =     6.10 Bohr mag/cell

     iteration # 16     ecut=    50.00 Ry     beta=0.70
     Davidson diagonalization with overlap
     ethr =  4.24E-11,  avg # of iterations =  3.4

     negative rho (up, down):  0.000E+00 9.988E-04

     Magnetic moment per site:
     atom:    1    charge:   14.7868    magn:    2.9597    constr:    0.0000
     atom:    2    charge:   14.7868    magn:    2.9597    constr:    0.0000

     total cpu time spent up to now is      198.2 secs

     End of self-consistent calculation

 ------ SPIN UP ------------


          k = 0.0000 0.0000 0.0000 (  1425 PWs)   bands (ev):

   -77.8486 -77.8421 -43.9363 -43.9363 -43.9275 -43.9275 -43.7878 -43.7225
     3.9134   7.0296   8.2636   8.2636   8.3867   8.3867   8.4079   8.4079
     8.6046   8.8643   8.8643  10.2101

          k = 0.0000 0.0000 0.1163 (  1425 PWs)   bands (ev):

   -77.8482 -77.8426 -43.9354 -43.9354 -43.9287 -43.9287 -43.7808 -43.7298
     4.1722   6.8121   8.2095   8.2095   8.3396   8.3396   8.5183   8.5183
     8.5663   8.8572   8.8572   9.2818

          k = 0.0000 0.0000 0.2326 (  1431 PWs)   bands (ev):

   -77.8465 -77.8443 -43.9332 -43.9332 -43.9310 -43.9310 -43.7659 -43.7466
     4.9123   5.9700   8.1925   8.1925   8.2492   8.2492   8.4963   8.5750
     8.6818   8.6818   8.8044   8.8044

          k = 0.0000 0.1155 0.0000 (  1431 PWs)   bands (ev):

   -77.8481 -77.8414 -43.9425 -43.9383 -43.9349 -43.9293 -43.7853 -43.7243
     4.1703   7.1949   8.1780   8.2879   8.3381   8.3576   8.3613   8.4729
     8.5133   8.6898   8.8778  10.8780

          k = 0.0000 0.1155 0.1163 (  1432 PWs)   bands (ev):

   -77.8474 -77.8421 -43.9421 -43.9372 -43.9357 -43.9302 -43.7796 -43.7305
     4.4246   6.9929   8.1372   8.1952   8.2663   8.3716   8.4140   8.5029
     8.5215   8.7111   8.8684   9.8713

          k = 0.0000 0.1155 0.2326 (  1432 PWs)   bands (ev):

   -77.8457 -77.8437 -43.9403 -43.9380 -43.9352 -43.9323 -43.7645 -43.7460
     5.1508   6.1815   8.0952   8.1202   8.2554   8.3203   8.3807   8.4238
     8.6846   8.8105   8.8355   9.1160

          k = 0.0000 0.2309 0.0000 (  1423 PWs)   bands (ev):

   -77.8456 -77.8399 -43.9602 -43.9521 -43.9435 -43.9328 -43.7792 -43.7258
     4.9107   7.5103   7.8074   8.0740   8.2524   8.2642   8.2972   8.6137
     8.7059   8.9005   8.9123  12.1652

          k = 0.0000 0.2309 0.1163 (  1434 PWs)   bands (ev):

   -77.8452 -77.8406 -43.9598 -43.9533 -43.9424 -43.9339 -43.7746 -43.7316
     5.1438   7.3435   7.7904   8.0432   8.2365   8.2758   8.3649   8.6092
     8.6815   8.9019   8.9292  10.7210

          k = 0.0000 0.2309 0.2326 (  1435 PWs)   bands (ev):

   -77.8437 -77.8420 -43.9581 -43.9555 -43.9401 -43.9368 -43.7608 -43.7445
     5.7983   6.6774   7.8761   7.9857   8.2809   8.3499   8.3532   8.4801
     8.7682   8.8602   9.0725   9.5624

          k = 0.0000 0.3464 0.0000 (  1439 PWs)   bands (ev):

   -77.8430 -77.8383 -43.9819 -43.9740 -43.9496 -43.9376 -43.7710 -43.7296
     5.9765   7.3965   7.4591   8.1077   8.1331   8.1373   8.5440   8.9140
     8.9514   9.0116   9.2970  13.7488

          k = 0.0000 0.3464 0.1163 (  1439 PWs)   bands (ev):

   -77.8424 -77.8388 -43.9812 -43.9747 -43.9486 -43.9389 -43.7671 -43.7334
     6.1327   7.2808   7.5560   7.9069   8.1912   8.4152   8.5716   8.7882
     8.9715   9.0484   9.2623  11.7225

          k = 0.0000 0.3464 0.2326 (  1434 PWs)   bands (ev):

   -77.8413 -77.8398 -43.9795 -43.9769 -43.9456 -43.9420 -43.7560 -43.7435
     6.5188   6.9583   7.7209   7.8354   8.3513   8.5713   8.6452   8.7124
     9.0113   9.0481   9.3181  10.1252

          k = 0.0000 0.4619 0.0000 (  1436 PWs)   bands (ev):

   -77.8403 -77.8371 -43.9993 -43.9904 -43.9545 -43.9415 -43.7623 -43.7341
     6.8269   7.1544   7.2725   8.0145   8.0442   8.4679   8.8652   8.9180
     9.2366   9.2842  10.0313  14.1295

          k = 0.0000 0.4619 0.1163 (  1445 PWs)   bands (ev):

   -77.8401 -77.8376 -43.9989 -43.9922 -43.9533 -43.9430 -43.7595 -43.7365
     6.7533   7.1620   7.4269   7.7659   8.1166   8.7894   8.8167   9.0703
     9.2445   9.2879   9.9378  12.8602

          k = 0.0000 0.4619 0.2326 (  1437 PWs)   bands (ev):

   -77.8393 -77.8381 -43.9971 -43.9946 -43.9501 -43.9462 -43.7514 -43.7433
     6.7823   6.9712   7.6153   7.6790   8.3142   8.5786   9.1501   9.2634
     9.2820   9.5257   9.9773  11.1786

          k = 0.0000-0.5774 0.0000 (  1440 PWs)   bands (ev):

   -77.8392 -77.8369 -44.0060 -43.9979 -43.9561 -43.9427 -43.7579 -43.7368
     7.0520   7.0755   7.1661   7.9681   8.0116   8.8556   8.9143   8.9184
     9.3449   9.3993  11.2066  12.3056

          k = 0.0000-0.5774 0.1163 (  1446 PWs)   bands (ev):

   -77.8393 -77.8370 -44.0056 -43.9985 -43.9549 -43.9446 -43.7557 -43.7391
     6.8248   7.1420   7.4059   7.7147   8.0882   8.8189   8.9383   9.3272
     9.3520   9.3948  11.1547  12.2293

          k = 0.0000-0.5774 0.2326 (  1452 PWs)   bands (ev):

   -77.8385 -77.8379 -44.0039 -44.0017 -43.9520 -43.9479 -43.7500 -43.7435
     6.7968   6.9638   7.5968   7.5992   8.2972   8.5747   9.2764   9.3670
     9.3829   9.6366  11.3070  11.8829

          k = 0.1000 0.1732 0.0000 (  1428 PWs)   bands (ev):

   -77.8464 -77.8403 -43.9539 -43.9482 -43.9403 -43.9330 -43.7812 -43.7258
     4.6708   7.4661   7.9631   8.0376   8.2057   8.2666   8.4088   8.5645
     8.6146   8.8537   8.8839  11.7880

          k = 0.1000 0.1732 0.1163 (  1440 PWs)   bands (ev):

   -77.8459 -77.8411 -43.9534 -43.9486 -43.9402 -43.9341 -43.7762 -43.7314
     4.9126   7.2861   7.8946   8.0245   8.2419   8.2948   8.3723   8.5525
     8.6375   8.8684   8.8875  10.4866

          k = 0.1000 0.1732 0.2326 (  1436 PWs)   bands (ev):

   -77.8444 -77.8426 -43.9519 -43.9499 -43.9387 -43.9363 -43.7621 -43.7450
     5.5977   6.5466   7.9322   8.0053   8.2708   8.3142   8.3494   8.4387
     8.7522   8.8471   9.0075   9.4410

          k = 0.1000 0.2887 0.0000 (  1438 PWs)   bands (ev):

   -77.8440 -77.8388 -43.9719 -43.9665 -43.9475 -43.9388 -43.7741 -43.7286
     5.5953   7.5506   7.6406   7.9668   8.0590   8.2782   8.2944   8.8425
     8.8851   8.9346   9.1923  13.1667

          k = 0.1000 0.2887 0.1163 (  1438 PWs)   bands (ev):

   -77.8435 -77.8393 -43.9713 -43.9669 -43.9470 -43.9397 -43.7696 -43.7328
     5.7944   7.4042   7.6956   7.9376   8.1524   8.2605   8.3154   8.7215
     8.9485   8.9749   9.1840  11.3644

          k = 0.1000 0.2887 0.2326 (  1432 PWs)   bands (ev):

   -77.8421 -77.8405 -43.9700 -43.9681 -43.9449 -43.9422 -43.7577 -43.7438
     6.3262   6.9604   7.8134   7.9149   8.2415   8.2917   8.3688   8.5395
     9.0476   9.0874   9.2259   9.9191

          k = 0.1000 0.4041 0.0000 (  1449 PWs)   bands (ev):

   -77.8413 -77.8376 -43.9907 -43.9835 -43.9550 -43.9440 -43.7658 -43.7329
     6.6393   7.2626   7.4501   7.9627   8.1038   8.1430   8.5898   8.8833
     9.1129   9.2913   9.7644  14.6332

          k = 0.1000 0.4041 0.1163 (  1440 PWs)   bands (ev):

   -77.8408 -77.8378 -43.9900 -43.9845 -43.9539 -43.9450 -43.7621 -43.7354
     6.6807   7.2492   7.5225   7.8217   8.1295   8.4199   8.6055   8.7795
     9.1519   9.3454   9.7278  12.5295

          k = 0.1000 0.4041 0.2326 (  1437 PWs)   bands (ev):

   -77.8399 -77.8387 -43.9888 -43.9865 -43.9513 -43.9480 -43.7529 -43.7432
     6.8226   7.0526   7.6942   7.7975   8.2530   8.4884   8.6982   8.7159
     9.3360   9.4764   9.7877  10.8081

          k = 0.1000 0.5196 0.0000 (  1442 PWs)   bands (ev):

   -77.8392 -77.8369 -44.0023 -43.9941 -43.9593 -43.9469 -43.7584 -43.7370
     7.1217   7.1219   7.2924   7.9440   8.0118   8.5310   8.7920   8.8802
     9.3342   9.4717  10.8990  13.2256

          k = 0.1000 0.5196 0.1163 (  1439 PWs)   bands (ev):

   -77.8390 -77.8370 -44.0018 -43.9952 -43.9581 -43.9481 -43.7557 -43.7387
     6.9080   7.2450   7.4703   7.7296   8.0325   8.7373   8.8357   8.8806
     9.3468   9.5461  10.9170  13.0144

          k = 0.1000 0.5196 0.2326 (  1440 PWs)   bands (ev):

   -77.8384 -77.8377 -44.0002 -43.9978 -43.9552 -43.9512 -43.7497 -43.7434
     6.8909   7.0598   7.6405   7.6899   8.1932   8.4888   9.0180   9.0647
     9.4448   9.6244  11.2193  12.1012

          k = 0.2000 0.3464 0.0000 (  1444 PWs)   bands (ev):

   -77.8415 -77.8377 -43.9823 -43.9818 -43.9562 -43.9480 -43.7665 -43.7321
     6.5780   7.3375   7.7186   7.8060   7.9038   8.2064   8.3749   8.8451
     9.0195   9.3437   9.7362  14.6337

          k = 0.2000 0.3464 0.1163 (  1445 PWs)   bands (ev):

   -77.8412 -77.8381 -43.9824 -43.9818 -43.9556 -43.9489 -43.7629 -43.7353
     6.6742   7.2879   7.7286   7.8641   8.0390   8.1701   8.3640   8.7287
     9.1002   9.3867   9.7342  12.4143

          k = 0.2000 0.3464 0.2326 (  1430 PWs)   bands (ev):

   -77.8401 -77.8388 -43.9823 -43.9819 -43.9536 -43.9511 -43.7533 -43.7430
     6.9008   7.1350   7.8105   7.9030   8.1930   8.2173   8.3659   8.5093
     9.3804   9.4622   9.8327  10.7423

          k = 0.2000 0.4619 0.0000 (  1456 PWs)   bands (ev):

   -77.8394 -77.8372 -43.9940 -43.9886 -43.9657 -43.9561 -43.7586 -43.7373
     7.2119   7.3333   7.5661   7.8515   7.9793   8.0554   8.5714   8.8136
     9.2361   9.5516  10.7330  14.9503

          k = 0.2000 0.4619 0.1163 (  1441 PWs)   bands (ev):

   -77.8390 -77.8371 -43.9933 -43.9890 -43.9649 -43.9570 -43.7555 -43.7386
     7.1300   7.3700   7.6029   7.8143   7.9920   8.2330   8.5760   8.7145
     9.2955   9.5902  10.8119  13.8170

          k = 0.2000 0.4619 0.2326 (  1441 PWs)   bands (ev):

   -77.8384 -77.8377 -43.9921 -43.9906 -43.9628 -43.9597 -43.7496 -43.7432
     7.1219   7.2346   7.7418   7.8806   8.0325   8.2749   8.5991   8.6034
     9.4866   9.6194  11.1960  12.2112

          k = 0.2000 0.5774 0.0000 (  1446 PWs)   bands (ev):

   -77.8383 -77.8369 -43.9981 -43.9898 -43.9702 -43.9588 -43.7537 -43.7407
     7.1722   7.4597   7.4989   7.8916   7.9362   8.2138   8.6689   8.8021
     9.3711   9.5641  12.2280  12.8722

          k = 0.2000 0.5774 0.1163 (  1447 PWs)   bands (ev):

   -77.8381 -77.8370 -43.9976 -43.9911 -43.9694 -43.9602 -43.7516 -43.7412
     7.1121   7.4998   7.6264   7.7143   7.9004   8.3889   8.6932   8.7204
     9.4075   9.6070  12.3878  12.9273

          k = 0.2000 0.5774 0.2326 (  1445 PWs)   bands (ev):

   -77.8377 -77.8373 -43.9959 -43.9932 -43.9667 -43.9633 -43.7479 -43.7435
     7.1273   7.2948   7.7337   7.8526   7.9348   8.2651   8.7208   8.7405
     9.5252   9.6321  12.8091  13.0386

          k = 0.3000 0.5196 0.0000 (  1446 PWs)   bands (ev):

   -77.8378 -77.8370 -43.9917 -43.9856 -43.9767 -43.9685 -43.7509 -43.7429
     7.2188   7.6616   7.8041   7.8338   7.8405   7.9250   8.5611   8.7619
     9.3970   9.5542  12.3615  14.5538

          k = 0.3000 0.5196 0.1163 (  1446 PWs)   bands (ev):

   -77.8376 -77.8370 -43.9907 -43.9858 -43.9769 -43.9698 -43.7495 -43.7431
     7.2701   7.5631   7.7397   7.7434   7.9889   8.0551   8.5461   8.6665
     9.4455   9.5857  12.5370  14.5787

          k = 0.3000 0.5196 0.2326 (  1454 PWs)   bands (ev):

   -77.8375 -77.8373 -43.9888 -43.9872 -43.9761 -43.9732 -43.7469 -43.7441
     7.3671   7.4410   7.7110   7.7478   8.0650   8.1295   8.5209   8.5350
     9.5561   9.6168  13.0787  13.9880

 ------ SPIN DOWN ----------


          k = 0.0000 0.0000 0.0000 (  1425 PWs)   bands (ev):

   -74.4757 -74.4682 -40.5871 -40.5758 -40.5758 -40.5659 -40.5659 -40.5111
     4.1876   7.9587  10.1610  10.3373  10.9090  10.9090  11.0802  11.0802
    12.1618  12.1618  12.7726  12.7726

          k = 0.0000 0.0000 0.1163 (  1425 PWs)   bands (ev):

   -74.4751 -74.4687 -40.5793 -40.5748 -40.5748 -40.5672 -40.5672 -40.5192
     4.4466   7.4832  10.0011  10.1017  10.9057  10.9057  11.0470  11.0470
    12.2414  12.2414  12.7333  12.7333

          k = 0.0000 0.0000 0.2326 (  1431 PWs)   bands (ev):

   -74.4733 -74.4708 -40.5724 -40.5724 -40.5698 -40.5698 -40.5612 -40.5385
     5.1949   6.3231   9.8493   9.9600  10.9205  10.9205  10.9759  10.9759
    12.4252  12.4252  12.6119  12.6119

          k = 0.0000 0.1155 0.0000 (  1431 PWs)   bands (ev):

   -74.4750 -74.4673 -40.5842 -40.5833 -40.5781 -40.5745 -40.5680 -40.5127
     4.4456   8.1555  10.1962  10.2265  10.8314  11.0028  11.0228  11.1849
    12.0517  12.0900  12.7953  13.1502

          k = 0.0000 0.1155 0.1163 (  1432 PWs)   bands (ev):

   -74.4742 -74.4681 -40.5842 -40.5770 -40.5761 -40.5754 -40.5690 -40.5197
     4.7021   7.6986   9.9421  10.1438  10.8116  10.9808  11.0171  11.1511
    12.1465  12.1797  12.7455  12.8794

          k = 0.0000 0.1155 0.2326 (  1432 PWs)   bands (ev):

   -74.4724 -74.4701 -40.5819 -40.5786 -40.5747 -40.5714 -40.5585 -40.5372
     5.4438   6.5602   9.8519   9.9959  10.8178  10.8929  11.0279  11.0807
    12.3757  12.3858  12.5995  12.6284

          k = 0.0000 0.2309 0.0000 (  1423 PWs)   bands (ev):

   -74.4722 -74.4657 -40.6041 -40.5949 -40.5842 -40.5771 -40.5721 -40.5147
     5.1991   8.6585  10.0273  10.1993  10.6606  10.9284  11.3373  11.4699
    11.8114  11.9255  12.8322  14.0676

          k = 0.0000 0.2309 0.1163 (  1434 PWs)   bands (ev):

   -74.4717 -74.4664 -40.6046 -40.5967 -40.5830 -40.5734 -40.5703 -40.5206
     5.4456   8.2794   9.8277  10.2037  10.6029  10.8712  11.3218  11.4334
    11.9433  12.0412  12.7589  13.2033

          k = 0.0000 0.2309 0.2326 (  1435 PWs)   bands (ev):

   -74.4701 -74.4681 -40.6035 -40.6000 -40.5803 -40.5765 -40.5535 -40.5349
     6.1597   7.2277   9.8574  10.0831  10.5733  10.7163  11.3204  11.3662
    12.2665  12.2929  12.5601  12.6656

          k = 0.0000 0.3464 0.0000 (  1439 PWs)   bands (ev):

   -74.4690 -74.4638 -40.6297 -40.6205 -40.5914 -40.5777 -40.5672 -40.5189
     6.3621   9.1423   9.8974  10.0803  10.4629  11.2157  11.5213  11.7485
    11.7648  11.8482  12.8538  15.0124

          k = 0.0000 0.3464 0.1163 (  1439 PWs)   bands (ev):

   -74.4685 -74.4643 -40.6299 -40.6220 -40.5902 -40.5791 -40.5617 -40.5228
     6.5881   8.9426   9.7284  10.1844  10.3893  10.9910  11.6845  11.7625
    11.8066  11.9458  12.7535  13.6150

          k = 0.0000 0.3464 0.2326 (  1434 PWs)   bands (ev):

   -74.4672 -74.4655 -40.6289 -40.6258 -40.5868 -40.5826 -40.5479 -40.5334
     7.2246   8.1388   9.8351  10.1263  10.3973  10.6779  11.6940  11.7504
    12.1721  12.2037  12.5025  12.7284

          k = 0.0000 0.4619 0.0000 (  1436 PWs)   bands (ev):

   -74.4660 -74.4624 -40.6503 -40.6403 -40.5971 -40.5821 -40.5570 -40.5241
     7.7093   9.2155   9.8602   9.9160  10.4905  11.2746  11.6180  11.8350
    12.1389  12.1927  12.8603  14.9000

          k = 0.0000 0.4619 0.1163 (  1445 PWs)   bands (ev):

   -74.4658 -74.4629 -40.6506 -40.6426 -40.5957 -40.5838 -40.5530 -40.5264
     7.8682   9.1683   9.6883  10.0985  10.4440  11.2574  11.7047  11.8786
    12.1577  12.1747  12.7320  13.9715

          k = 0.0000 0.4619 0.2326 (  1437 PWs)   bands (ev):

   -74.4648 -74.4636 -40.6496 -40.6465 -40.5920 -40.5875 -40.5427 -40.5331
     8.2931   8.8170   9.7788  10.0187  10.6309  11.0125  11.9240  12.1065
    12.1839  12.2310  12.4434  12.8560

          k = 0.0000-0.5774 0.0000 (  1440 PWs)   bands (ev):

   -74.4648 -74.4621 -40.6583 -40.6486 -40.5990 -40.5836 -40.5520 -40.5273
     8.5353   9.0673   9.7817   9.8611  10.5489  11.1744  11.5704  12.2801
    12.3457  12.5631  12.8611  13.6414

          k = 0.0000-0.5774 0.1163 (  1446 PWs)   bands (ev):

   -74.4647 -74.4622 -40.6585 -40.6502 -40.5977 -40.5857 -40.5485 -40.5291
     8.6008   9.0606   9.7286   9.9541  10.5415  11.4248  11.6710  12.2829
    12.3260  12.3415  12.7136  13.4669

          k = 0.0000-0.5774 0.2326 (  1452 PWs)   bands (ev):

   -74.4639 -74.4632 -40.6576 -40.6547 -40.5942 -40.5895 -40.5409 -40.5334
     8.7647   8.9542   9.7828   9.9584  10.8260  11.4704  11.9483  12.2562
    12.2607  12.3327  12.3919  12.9339

          k = 0.1000 0.1732 0.0000 (  1428 PWs)   bands (ev):

   -74.4731 -74.4662 -40.5966 -40.5903 -40.5806 -40.5794 -40.5723 -40.5144
     4.9521   8.5101  10.0798  10.2117  10.7479  10.8610  11.2465  11.3953
    11.8391  12.0248  12.8056  13.7908

          k = 0.1000 0.1732 0.1163 (  1440 PWs)   bands (ev):

   -74.4725 -74.4670 -40.5972 -40.5910 -40.5805 -40.5736 -40.5720 -40.5204
     5.2023   8.1015   9.8604  10.1954  10.6681  10.8607  11.2315  11.3562
    11.9899  12.0988  12.7403  13.1184

          k = 0.1000 0.1732 0.2326 (  1436 PWs)   bands (ev):

   -74.4708 -74.4687 -40.5961 -40.5933 -40.5788 -40.5760 -40.5550 -40.5355
     5.9265   7.0147   9.8582  10.0608  10.6344  10.7483  11.2359  11.2858
    12.3060  12.3131  12.5593  12.6664

          k = 0.1000 0.2887 0.0000 (  1438 PWs)   bands (ev):

   -74.4703 -74.4644 -40.6179 -40.6117 -40.5890 -40.5789 -40.5709 -40.5176
     5.9161   9.0410   9.9457  10.0851  10.6078  10.9103  11.5733  11.6226
    11.7686  11.8576  12.8093  14.8727

          k = 0.1000 0.2887 0.1163 (  1438 PWs)   bands (ev):

   -74.4697 -74.4650 -40.6182 -40.6128 -40.5885 -40.5800 -40.5646 -40.5219
     6.1512   8.7652   9.7661  10.1446  10.5331  10.7933  11.5568  11.6890
    11.8308  11.9872  12.7217  13.5008

          k = 0.1000 0.2887 0.2326 (  1432 PWs)   bands (ev):

   -74.4682 -74.4664 -40.6177 -40.6152 -40.5862 -40.5830 -40.5496 -40.5337
     6.8295   7.8273   9.8650  10.1577  10.3725  10.5834  11.5729  11.6435
    12.2141  12.2270  12.4988  12.7386

          k = 0.1000 0.4041 0.0000 (  1449 PWs)   bands (ev):

   -74.4671 -74.4629 -40.6401 -40.6319 -40.5978 -40.5850 -40.5609 -40.5225
     7.2008   9.3248   9.9001   9.9309  10.5121  11.3252  11.3394  11.6475
    11.9870  12.2103  12.8074  15.3905

          k = 0.1000 0.4041 0.1163 (  1440 PWs)   bands (ev):

   -74.4666 -74.4632 -40.6401 -40.6335 -40.5967 -40.5863 -40.5558 -40.5250
     7.3990   9.2588   9.7000  10.0919  10.4165  11.0102  11.6325  11.6963
    12.0933  12.1680  12.7080  14.0471

          k = 0.1000 0.4041 0.2326 (  1437 PWs)   bands (ev):

   -74.4656 -74.4642 -40.6397 -40.6370 -40.5938 -40.5898 -40.5441 -40.5329
     7.9474   8.6903   9.8256  10.1212  10.3514  10.6601  11.7761  11.9915
    12.1425  12.2877  12.5194  12.9409

          k = 0.1000 0.5196 0.0000 (  1442 PWs)   bands (ev):

   -74.4648 -74.4621 -40.6539 -40.6443 -40.6029 -40.5885 -40.5523 -40.5274
     8.4086   9.2356   9.7688   9.9138  10.5914  11.1907  11.5082  11.8947
    12.1537  12.7196  12.8030  14.3568

          k = 0.1000 0.5196 0.1163 (  1439 PWs)   bands (ev):

   -74.4645 -74.4623 -40.6540 -40.6462 -40.6017 -40.5900 -40.5485 -40.5288
     8.5149   9.2332   9.6983  10.0450  10.5161  11.1967  11.6158  11.9274
    12.1884  12.5062  12.8232  14.0590

          k = 0.1000 0.5196 0.2326 (  1440 PWs)   bands (ev):

   -74.4638 -74.4630 -40.6532 -40.6502 -40.5984 -40.5938 -40.5404 -40.5330
     8.7800   9.0729   9.8040  10.0381  10.6225  11.0033  11.8638  12.0846
    12.1109  12.2872  12.8761  13.3558

          k = 0.2000 0.3464 0.0000 (  1444 PWs)   bands (ev):

   -74.4674 -74.4631 -40.6302 -40.6298 -40.5991 -40.5897 -40.5619 -40.5217
     7.0210   9.4361   9.8535   9.9392  10.6502  10.9819  11.3338  11.6800
    11.9268  12.2445  12.7520  15.5089

          k = 0.2000 0.3464 0.1163 (  1445 PWs)   bands (ev):

   -74.4670 -74.4634 -40.6312 -40.6303 -40.5987 -40.5910 -40.5567 -40.5247
     7.2304   9.3799   9.7140   9.9260  10.6594  10.6860  11.5511  11.6532
    12.1139  12.1772  12.6790  14.0958

          k = 0.2000 0.3464 0.2326 (  1430 PWs)   bands (ev):

   -74.4657 -74.4644 -40.6321 -40.6315 -40.5968 -40.5939 -40.5444 -40.5325
     7.8235   8.6612   9.8861  10.1190  10.2849  10.4377  11.6825  11.9624
    12.1545  12.2907  12.5714  13.0165

          k = 0.2000 0.4619 0.0000 (  1456 PWs)   bands (ev):

   -74.4649 -74.4622 -40.6440 -40.6376 -40.6103 -40.5992 -40.5525 -40.5277
     8.2634   9.4974   9.7099  10.0120  10.7379  11.1856  11.3368  11.4307
    12.0185  12.7067  12.8548  15.7861

          k = 0.2000 0.4619 0.1163 (  1441 PWs)   bands (ev):

   -74.4645 -74.4623 -40.6438 -40.6388 -40.6098 -40.6005 -40.5482 -40.5285
     8.4189   9.5774   9.6819   9.9869  10.6065  10.9066  11.3993  11.6478
    12.1565  12.4339  12.9883  14.9619

          k = 0.2000 0.4619 0.2326 (  1441 PWs)   bands (ev):

   -74.4638 -74.4630 -40.6435 -40.6416 -40.6078 -40.6041 -40.5399 -40.5325
     8.8291   9.3269   9.8598  10.0872  10.3228  10.5152  11.6048  11.9908
    12.0597  12.2644  13.1991  13.8147

          k = 0.2000 0.5774 0.0000 (  1446 PWs)   bands (ev):

   -74.4636 -74.4619 -40.6489 -40.6392 -40.6157 -40.6025 -40.5468 -40.5316
     8.9785   9.4113   9.6036  10.0659  10.7950  11.1506  11.2920  11.7631
    11.8342  12.6897  13.6439  14.2867

          k = 0.2000 0.5774 0.1163 (  1447 PWs)   bands (ev):

   -74.4635 -74.4622 -40.6489 -40.6412 -40.6150 -40.6042 -40.5436 -40.5315
     9.0720   9.4531   9.6513  10.1203  10.6076  10.9507  11.4158  11.8357
    11.9768  12.4437  13.7896  14.2896

          k = 0.2000 0.5774 0.2326 (  1445 PWs)   bands (ev):

   -74.4631 -74.4626 -40.6478 -40.6448 -40.6125 -40.6082 -40.5377 -40.5330
     9.2791   9.4359   9.8754  10.1963  10.3521  10.6105  11.6431  11.9791
    12.0082  12.1173  14.0604  14.2560

          k = 0.3000 0.5196 0.0000 (  1446 PWs)   bands (ev):

   -74.4630 -74.4620 -40.6412 -40.6340 -40.6236 -40.6140 -40.5436 -40.5342
     9.1352   9.5033   9.6099  10.1725  11.0144  11.1138  11.1844  11.4416
    11.7788  12.6340  13.8909  15.5281

          k = 0.3000 0.5196 0.1163 (  1446 PWs)   bands (ev):

   -74.4629 -74.4622 -40.6403 -40.6352 -40.6243 -40.6157 -40.5410 -40.5335
     9.2586   9.5984   9.6733  10.1255  10.7834  10.8171  11.2064  11.6953
    11.9418  12.3806  14.0663  15.5259

          k = 0.3000 0.5196 0.2326 (  1454 PWs)   bands (ev):

   -74.4628 -74.4625 -40.6390 -40.6377 -40.6237 -40.6199 -40.5365 -40.5334
     9.5615   9.7587   9.8737  10.0835  10.2822  10.3968  11.4747  11.9024
    11.9690  12.0633  14.4903  15.1270

     the Fermi energy is    10.7459 ev

!    total energy              =    -658.40763811 Ry
     Harris-Foulkes estimate   =    -658.40763805 Ry
     estimated scf accuracy    <          5.9E-09 Ry

     total all-electron energy =     -5091.000709 Ry

     The total energy is the sum of the following terms:

     one-electron contribution =    -299.12338488 Ry
     hartree contribution      =     161.62241408 Ry
     xc contribution           =     -69.41017800 Ry
     ewald contribution        =    -299.21863094 Ry
     one-center paw contrib.   =    -152.27753506 Ry
     smearing contrib. (-TS)   =      -0.00032331 Ry

     total magnetization       =     5.77 Bohr mag/cell
     absolute magnetization    =     6.10 Bohr mag/cell

     convergence has been achieved in  16 iterations

     Forces acting on atoms (Ry/au):


     negative rho (up, down):  0.000E+00 9.988E-04
     atom    1 type  1   force =     0.00000000    0.00000000    0.00000000
     atom    2 type  1   force =     0.00000000    0.00000000    0.00000000

     Total force =     0.000000     Total SCF correction =     0.000000


     entering subroutine stress ...


     negative rho (up, down):  0.000E+00 9.988E-04
          total   stress  (Ry/bohr**3)                   (kbar)     P= -285.23
  -0.00209782   0.00000000   0.00000000       -308.60      0.00      0.00
   0.00000000  -0.00209782   0.00000000          0.00   -308.60      0.00
   0.00000000   0.00000000  -0.00162119          0.00      0.00   -238.49


     Writing output data file Fe_hcp.save

     init_run     :      6.65s CPU      7.33s WALL (       1 calls)
     electrons    :    189.35s CPU    190.48s WALL (       1 calls)
     forces       :      1.04s CPU      0.99s WALL (       1 calls)
     stress       :      2.87s CPU      3.15s WALL (       1 calls)

     Called by init_run:
     wfcinit      :      4.55s CPU      4.95s WALL (       1 calls)
     potinit      :      1.36s CPU      1.57s WALL (       1 calls)

     Called by electrons:
     c_bands      :    145.64s CPU    143.78s WALL (      16 calls)
     sum_band     :     22.75s CPU     23.61s WALL (      16 calls)
     v_of_rho     :      1.19s CPU      1.33s WALL (      17 calls)
     newd         :      1.62s CPU      1.91s WALL (      17 calls)
     mix_rho      :      0.19s CPU      0.27s WALL (      16 calls)

     Called by c_bands:
     init_us_2    :      1.94s CPU      2.12s WALL (    2940 calls)
     cegterg      :    140.29s CPU    137.98s WALL (    1344 calls)

     Called by *egterg:
     h_psi        :    111.06s CPU    115.52s WALL (    5081 calls)
     s_psi        :      5.15s CPU      3.41s WALL (    5081 calls)
     g_psi        :      0.63s CPU      0.67s WALL (    3653 calls)
     cdiaghg      :      5.95s CPU      6.37s WALL (    4997 calls)

     Called by h_psi:
     add_vuspsi   :      5.50s CPU      3.60s WALL (    5081 calls)

     General routines
     calbec       :      7.85s CPU      4.91s WALL (    6593 calls)
     fft          :      0.73s CPU      0.79s WALL (     561 calls)
     ffts         :      0.06s CPU      0.06s WALL (      66 calls)
     fftw         :    105.09s CPU    113.75s WALL (  171804 calls)
     interpolate  :      0.17s CPU      0.19s WALL (      66 calls)
     davcio       :      0.00s CPU      0.06s WALL (      84 calls)


     PAW routines
     PAW_pot      :     19.24s CPU     21.07s WALL (      17 calls)
     PAW_symme    :      0.03s CPU      0.03s WALL (      33 calls)

     PWSCF        :  3m20.47s CPU     3m22.70s WALL


   This run was terminated on:  22:55:58  11May2015            

=------------------------------------------------------------------------------=
   JOB DONE.
=------------------------------------------------------------------------------=
