
     Program PWSCF v.5.1.2 starts on 11May2015 at 22:28:53 

     This program is part of the open-source Quantum ESPRESSO suite
     for quantum simulation of materials; please cite
         "P. Giannozzi et al., J. Phys.:Condens. Matter 21 395502 (2009);
          URL http://www.quantum-espresso.org", 
     in publications or presentations arising from this work. More details at
     http://www.quantum-espresso.org/quote

     Serial version
     Reading input from Fe_HCP_5.42_174_10_5.pw.in

     Current dimensions of program PWSCF are:
     Max number of different atomic species (ntypx) = 10
     Max number of k-points (npk) =  40000
     Max angular momentum in pseudopotentials (lmaxx) =  3
               file Fe.pbe-spn-kjpaw_psl.0.2.1.UPF: wavefunction(s)  3D renormalized

     G-vector sticks info
     --------------------
     sticks:   dense  smooth     PW     G-vecs:    dense   smooth      PW
     Sum         511     409    121                16085    11455    1979

     Generating pointlists ...
     new r_m :   0.4125 (alat units)  2.2358 (a.u.) for type    1


     bravais-lattice index     =            4
     lattice parameter (alat)  =       5.4200  a.u.
     unit-cell volume          =     239.9262 (a.u.)^3
     number of atoms/cell      =            2
     number of atomic types    =            1
     number of electrons       =        32.00
     number of Kohn-Sham states=           20
     kinetic-energy cutoff     =      50.0000  Ry
     charge density cutoff     =     250.0000  Ry
     convergence threshold     =      1.0E-08
     mixing beta               =       0.7000
     number of iterations used =            8  plain     mixing
     Exchange-correlation      =  SLA  PW   PBX  PBC ( 1  4  3  4 0 0)

     celldm(1)=   5.420000  celldm(2)=   0.000000  celldm(3)=   1.740000
     celldm(4)=   0.000000  celldm(5)=   0.000000  celldm(6)=   0.000000

     crystal axes: (cart. coord. in units of alat)
               a(1) = (   1.000000   0.000000   0.000000 )  
               a(2) = (  -0.500000   0.866025   0.000000 )  
               a(3) = (   0.000000   0.000000   1.740000 )  

     reciprocal axes: (cart. coord. in units 2 pi/alat)
               b(1) = (  1.000000  0.577350 -0.000000 )  
               b(2) = (  0.000000  1.154701  0.000000 )  
               b(3) = (  0.000000 -0.000000  0.574713 )  


     PseudoPot. # 1 for Fe read from file:
     ./Fe.pbe-spn-kjpaw_psl.0.2.1.UPF
     MD5 check sum: a0a08122d52b112de96d1da1d7dd020f
     Pseudo is Projector augmented-wave + core cor, Zval = 16.0
     Generated using "atomic" code by A. Dal Corso  v.5.0.2 svn rev. 9415
     Shape of augmentation charge: PSQ
     Using radial grid of 1191 points,  6 beta functions with: 
                l(1) =   0
                l(2) =   0
                l(3) =   1
                l(4) =   1
                l(5) =   2
                l(6) =   2
     Q(r) pseudized with 0 coefficients 


     atomic species   valence    mass     pseudopotential
        Fe            16.00    55.85000     Fe( 1.00)

     Starting magnetic structure 
     atomic species   magnetization
        Fe           0.700

     24 Sym. Ops., with inversion, found (12 have fractional translation)



   Cartesian axes

     site n.     atom                  positions (alat units)
         1           Fe  tau(   1) = (  -0.0000000   0.5773503   0.4350000  )
         2           Fe  tau(   2) = (   0.5000000   0.2886751   1.3050000  )

     number of k points=    84  Marzari-Vanderbilt smearing, width (Ry)=  0.0250
                       cart. coord. in units 2pi/alat
        k(    1) = (   0.0000000   0.0000000   0.0000000), wk =   0.0020000
        k(    2) = (   0.0000000   0.0000000   0.1149425), wk =   0.0040000
        k(    3) = (   0.0000000   0.0000000   0.2298851), wk =   0.0040000
        k(    4) = (   0.0000000   0.1154701   0.0000000), wk =   0.0120000
        k(    5) = (   0.0000000   0.1154701   0.1149425), wk =   0.0240000
        k(    6) = (   0.0000000   0.1154701   0.2298851), wk =   0.0240000
        k(    7) = (   0.0000000   0.2309401   0.0000000), wk =   0.0120000
        k(    8) = (   0.0000000   0.2309401   0.1149425), wk =   0.0240000
        k(    9) = (   0.0000000   0.2309401   0.2298851), wk =   0.0240000
        k(   10) = (   0.0000000   0.3464102   0.0000000), wk =   0.0120000
        k(   11) = (   0.0000000   0.3464102   0.1149425), wk =   0.0240000
        k(   12) = (   0.0000000   0.3464102   0.2298851), wk =   0.0240000
        k(   13) = (   0.0000000   0.4618802   0.0000000), wk =   0.0120000
        k(   14) = (   0.0000000   0.4618802   0.1149425), wk =   0.0240000
        k(   15) = (   0.0000000   0.4618802   0.2298851), wk =   0.0240000
        k(   16) = (   0.0000000  -0.5773503   0.0000000), wk =   0.0060000
        k(   17) = (   0.0000000  -0.5773503   0.1149425), wk =   0.0120000
        k(   18) = (   0.0000000  -0.5773503   0.2298851), wk =   0.0120000
        k(   19) = (   0.1000000   0.1732051   0.0000000), wk =   0.0120000
        k(   20) = (   0.1000000   0.1732051   0.1149425), wk =   0.0240000
        k(   21) = (   0.1000000   0.1732051   0.2298851), wk =   0.0240000
        k(   22) = (   0.1000000   0.2886751   0.0000000), wk =   0.0240000
        k(   23) = (   0.1000000   0.2886751   0.1149425), wk =   0.0480000
        k(   24) = (   0.1000000   0.2886751   0.2298851), wk =   0.0480000
        k(   25) = (   0.1000000   0.4041452   0.0000000), wk =   0.0240000
        k(   26) = (   0.1000000   0.4041452   0.1149425), wk =   0.0480000
        k(   27) = (   0.1000000   0.4041452   0.2298851), wk =   0.0480000
        k(   28) = (   0.1000000   0.5196152   0.0000000), wk =   0.0240000
        k(   29) = (   0.1000000   0.5196152   0.1149425), wk =   0.0480000
        k(   30) = (   0.1000000   0.5196152   0.2298851), wk =   0.0480000
        k(   31) = (   0.2000000   0.3464102   0.0000000), wk =   0.0120000
        k(   32) = (   0.2000000   0.3464102   0.1149425), wk =   0.0240000
        k(   33) = (   0.2000000   0.3464102   0.2298851), wk =   0.0240000
        k(   34) = (   0.2000000   0.4618802   0.0000000), wk =   0.0240000
        k(   35) = (   0.2000000   0.4618802   0.1149425), wk =   0.0480000
        k(   36) = (   0.2000000   0.4618802   0.2298851), wk =   0.0480000
        k(   37) = (   0.2000000   0.5773503   0.0000000), wk =   0.0120000
        k(   38) = (   0.2000000   0.5773503   0.1149425), wk =   0.0240000
        k(   39) = (   0.2000000   0.5773503   0.2298851), wk =   0.0240000
        k(   40) = (   0.3000000   0.5196152   0.0000000), wk =   0.0120000
        k(   41) = (   0.3000000   0.5196152   0.1149425), wk =   0.0240000
        k(   42) = (   0.3000000   0.5196152   0.2298851), wk =   0.0240000
        k(   43) = (   0.0000000   0.0000000   0.0000000), wk =   0.0020000
        k(   44) = (   0.0000000   0.0000000   0.1149425), wk =   0.0040000
        k(   45) = (   0.0000000   0.0000000   0.2298851), wk =   0.0040000
        k(   46) = (   0.0000000   0.1154701   0.0000000), wk =   0.0120000
        k(   47) = (   0.0000000   0.1154701   0.1149425), wk =   0.0240000
        k(   48) = (   0.0000000   0.1154701   0.2298851), wk =   0.0240000
        k(   49) = (   0.0000000   0.2309401   0.0000000), wk =   0.0120000
        k(   50) = (   0.0000000   0.2309401   0.1149425), wk =   0.0240000
        k(   51) = (   0.0000000   0.2309401   0.2298851), wk =   0.0240000
        k(   52) = (   0.0000000   0.3464102   0.0000000), wk =   0.0120000
        k(   53) = (   0.0000000   0.3464102   0.1149425), wk =   0.0240000
        k(   54) = (   0.0000000   0.3464102   0.2298851), wk =   0.0240000
        k(   55) = (   0.0000000   0.4618802   0.0000000), wk =   0.0120000
        k(   56) = (   0.0000000   0.4618802   0.1149425), wk =   0.0240000
        k(   57) = (   0.0000000   0.4618802   0.2298851), wk =   0.0240000
        k(   58) = (   0.0000000  -0.5773503   0.0000000), wk =   0.0060000
        k(   59) = (   0.0000000  -0.5773503   0.1149425), wk =   0.0120000
        k(   60) = (   0.0000000  -0.5773503   0.2298851), wk =   0.0120000
        k(   61) = (   0.1000000   0.1732051   0.0000000), wk =   0.0120000
        k(   62) = (   0.1000000   0.1732051   0.1149425), wk =   0.0240000
        k(   63) = (   0.1000000   0.1732051   0.2298851), wk =   0.0240000
        k(   64) = (   0.1000000   0.2886751   0.0000000), wk =   0.0240000
        k(   65) = (   0.1000000   0.2886751   0.1149425), wk =   0.0480000
        k(   66) = (   0.1000000   0.2886751   0.2298851), wk =   0.0480000
        k(   67) = (   0.1000000   0.4041452   0.0000000), wk =   0.0240000
        k(   68) = (   0.1000000   0.4041452   0.1149425), wk =   0.0480000
        k(   69) = (   0.1000000   0.4041452   0.2298851), wk =   0.0480000
        k(   70) = (   0.1000000   0.5196152   0.0000000), wk =   0.0240000
        k(   71) = (   0.1000000   0.5196152   0.1149425), wk =   0.0480000
        k(   72) = (   0.1000000   0.5196152   0.2298851), wk =   0.0480000
        k(   73) = (   0.2000000   0.3464102   0.0000000), wk =   0.0120000
        k(   74) = (   0.2000000   0.3464102   0.1149425), wk =   0.0240000
        k(   75) = (   0.2000000   0.3464102   0.2298851), wk =   0.0240000
        k(   76) = (   0.2000000   0.4618802   0.0000000), wk =   0.0240000
        k(   77) = (   0.2000000   0.4618802   0.1149425), wk =   0.0480000
        k(   78) = (   0.2000000   0.4618802   0.2298851), wk =   0.0480000
        k(   79) = (   0.2000000   0.5773503   0.0000000), wk =   0.0120000
        k(   80) = (   0.2000000   0.5773503   0.1149425), wk =   0.0240000
        k(   81) = (   0.2000000   0.5773503   0.2298851), wk =   0.0240000
        k(   82) = (   0.3000000   0.5196152   0.0000000), wk =   0.0120000
        k(   83) = (   0.3000000   0.5196152   0.1149425), wk =   0.0240000
        k(   84) = (   0.3000000   0.5196152   0.2298851), wk =   0.0240000

     Dense  grid:    16085 G-vectors     FFT dimensions: (  27,  27,  48)

     Smooth grid:    11455 G-vectors     FFT dimensions: (  25,  25,  45)

     Largest allocated arrays     est. size (Mb)     dimensions
        Kohn-Sham Wavefunctions         0.44 Mb     (    1448,   20)
        NL pseudopotentials             0.80 Mb     (    1448,   36)
        Each V/rho on FFT grid          1.07 Mb     (   34992,   2)
        Each G-vector array             0.12 Mb     (   16085)
        G-vector shells                 0.01 Mb     (     839)
     Largest temporary arrays     est. size (Mb)     dimensions
        Auxiliary wavefunctions         1.77 Mb     (    1448,   80)
        Each subspace H/S matrix        0.10 Mb     (      80,   80)
        Each <psi_i|beta_j> matrix      0.01 Mb     (      36,   20)
        Arrays for rho mixing           4.27 Mb     (   34992,    8)

     Check: negative/imaginary core charge=   -0.000322    0.000000

     Initial potential from superposition of free atoms

     starting charge   31.99912, renormalised to   32.00000
     Starting wfc are   26 randomized atomic wfcs

     total cpu time spent up to now is        6.3 secs

     Self-consistent Calculation

     iteration #  1     ecut=    50.00 Ry     beta=0.70
     Davidson diagonalization with overlap
     ethr =  1.00E-02,  avg # of iterations =  2.0

     negative rho (up, down):  0.000E+00 1.096E-03

     Magnetic moment per site:
     atom:    1    charge:   14.6009    magn:    5.9446    constr:    0.0000
     atom:    2    charge:   14.6009    magn:    5.9446    constr:    0.0000

     total cpu time spent up to now is       15.7 secs

     total energy              =    -657.96184827 Ry
     Harris-Foulkes estimate   =    -656.24830007 Ry
     estimated scf accuracy    <       2.83859228 Ry

     total magnetization       =     8.00 Bohr mag/cell
     absolute magnetization    =     8.27 Bohr mag/cell

     iteration #  2     ecut=    50.00 Ry     beta=0.70
     Davidson diagonalization with overlap
     ethr =  8.87E-03,  avg # of iterations =  1.6

     negative rho (up, down):  0.000E+00 1.067E-03

     Magnetic moment per site:
     atom:    1    charge:   14.8291    magn:    4.0349    constr:    0.0000
     atom:    2    charge:   14.8291    magn:    4.0349    constr:    0.0000

     total cpu time spent up to now is       24.5 secs

     total energy              =    -658.13385824 Ry
     Harris-Foulkes estimate   =    -658.17984552 Ry
     estimated scf accuracy    <       0.84535432 Ry

     total magnetization       =     6.57 Bohr mag/cell
     absolute magnetization    =     6.86 Bohr mag/cell

     iteration #  3     ecut=    50.00 Ry     beta=0.70
     Davidson diagonalization with overlap
     ethr =  2.64E-03,  avg # of iterations =  3.1

     negative rho (up, down):  0.000E+00 1.256E-03

     Magnetic moment per site:
     atom:    1    charge:   14.7145    magn:    3.0562    constr:    0.0000
     atom:    2    charge:   14.7145    magn:    3.0562    constr:    0.0000

     total cpu time spent up to now is       34.3 secs

     total energy              =    -658.17170289 Ry
     Harris-Foulkes estimate   =    -658.64929987 Ry
     estimated scf accuracy    <       1.33735791 Ry

     total magnetization       =     6.71 Bohr mag/cell
     absolute magnetization    =     6.98 Bohr mag/cell

     iteration #  4     ecut=    50.00 Ry     beta=0.70
     Davidson diagonalization with overlap
     ethr =  2.64E-03,  avg # of iterations =  2.7

     negative rho (up, down):  0.000E+00 1.025E-03

     Magnetic moment per site:
     atom:    1    charge:   14.7743    magn:    2.9883    constr:    0.0000
     atom:    2    charge:   14.7743    magn:    2.9883    constr:    0.0000

     total cpu time spent up to now is       43.7 secs

     total energy              =    -658.39989721 Ry
     Harris-Foulkes estimate   =    -658.40013413 Ry
     estimated scf accuracy    <       0.00693999 Ry

     total magnetization       =     5.85 Bohr mag/cell
     absolute magnetization    =     6.25 Bohr mag/cell

     iteration #  5     ecut=    50.00 Ry     beta=0.70
     Davidson diagonalization with overlap
     ethr =  2.17E-05,  avg # of iterations =  3.3

     negative rho (up, down):  0.000E+00 1.034E-03

     Magnetic moment per site:
     atom:    1    charge:   14.7635    magn:    2.9958    constr:    0.0000
     atom:    2    charge:   14.7635    magn:    2.9958    constr:    0.0000

     total cpu time spent up to now is       57.1 secs

     total energy              =    -658.40706163 Ry
     Harris-Foulkes estimate   =    -658.40605029 Ry
     estimated scf accuracy    <       0.00077857 Ry

     total magnetization       =     5.83 Bohr mag/cell
     absolute magnetization    =     6.20 Bohr mag/cell

     iteration #  6     ecut=    50.00 Ry     beta=0.70
     Davidson diagonalization with overlap
     ethr =  2.43E-06,  avg # of iterations =  2.0

     negative rho (up, down):  0.000E+00 1.007E-03

     Magnetic moment per site:
     atom:    1    charge:   14.7640    magn:    2.9837    constr:    0.0000
     atom:    2    charge:   14.7640    magn:    2.9837    constr:    0.0000

     total cpu time spent up to now is       66.4 secs

     total energy              =    -658.40782440 Ry
     Harris-Foulkes estimate   =    -658.40729912 Ry
     estimated scf accuracy    <       0.00056431 Ry

     total magnetization       =     5.81 Bohr mag/cell
     absolute magnetization    =     6.18 Bohr mag/cell

     iteration #  7     ecut=    50.00 Ry     beta=0.70
     Davidson diagonalization with overlap
     ethr =  1.76E-06,  avg # of iterations =  2.3

     negative rho (up, down):  0.000E+00 1.002E-03

     Magnetic moment per site:
     atom:    1    charge:   14.7650    magn:    2.9786    constr:    0.0000
     atom:    2    charge:   14.7650    magn:    2.9786    constr:    0.0000

     total cpu time spent up to now is       75.0 secs

     total energy              =    -658.40834549 Ry
     Harris-Foulkes estimate   =    -658.40807732 Ry
     estimated scf accuracy    <       0.00016552 Ry

     total magnetization       =     5.80 Bohr mag/cell
     absolute magnetization    =     6.16 Bohr mag/cell

     iteration #  8     ecut=    50.00 Ry     beta=0.70
     Davidson diagonalization with overlap
     ethr =  5.17E-07,  avg # of iterations =  2.7

     negative rho (up, down):  0.000E+00 9.936E-04

     Magnetic moment per site:
     atom:    1    charge:   14.7663    magn:    2.9700    constr:    0.0000
     atom:    2    charge:   14.7663    magn:    2.9700    constr:    0.0000

     total cpu time spent up to now is       84.0 secs

     total energy              =    -658.40855504 Ry
     Harris-Foulkes estimate   =    -658.40844130 Ry
     estimated scf accuracy    <       0.00021511 Ry

     total magnetization       =     5.79 Bohr mag/cell
     absolute magnetization    =     6.14 Bohr mag/cell

     iteration #  9     ecut=    50.00 Ry     beta=0.70
     Davidson diagonalization with overlap
     ethr =  5.17E-07,  avg # of iterations =  2.3

     negative rho (up, down):  0.000E+00 9.776E-04

     Magnetic moment per site:
     atom:    1    charge:   14.7663    magn:    2.9577    constr:    0.0000
     atom:    2    charge:   14.7663    magn:    2.9577    constr:    0.0000

     total cpu time spent up to now is       92.6 secs

     total energy              =    -658.40843788 Ry
     Harris-Foulkes estimate   =    -658.40861002 Ry
     estimated scf accuracy    <       0.00007355 Ry

     total magnetization       =     5.78 Bohr mag/cell
     absolute magnetization    =     6.13 Bohr mag/cell

     iteration # 10     ecut=    50.00 Ry     beta=0.70
     Davidson diagonalization with overlap
     ethr =  2.30E-07,  avg # of iterations =  3.2

     negative rho (up, down):  0.000E+00 9.779E-04

     Magnetic moment per site:
     atom:    1    charge:   14.7660    magn:    2.9600    constr:    0.0000
     atom:    2    charge:   14.7660    magn:    2.9600    constr:    0.0000

     total cpu time spent up to now is      103.6 secs

     total energy              =    -658.40870268 Ry
     Harris-Foulkes estimate   =    -658.40854022 Ry
     estimated scf accuracy    <       0.00002212 Ry

     total magnetization       =     5.77 Bohr mag/cell
     absolute magnetization    =     6.11 Bohr mag/cell

     iteration # 11     ecut=    50.00 Ry     beta=0.70
     Davidson diagonalization with overlap
     ethr =  6.91E-08,  avg # of iterations =  1.8

     negative rho (up, down):  0.000E+00 9.763E-04

     Magnetic moment per site:
     atom:    1    charge:   14.7662    magn:    2.9584    constr:    0.0000
     atom:    2    charge:   14.7662    magn:    2.9584    constr:    0.0000

     total cpu time spent up to now is      112.2 secs

     total energy              =    -658.40871518 Ry
     Harris-Foulkes estimate   =    -658.40870492 Ry
     estimated scf accuracy    <       0.00000147 Ry

     total magnetization       =     5.77 Bohr mag/cell
     absolute magnetization    =     6.11 Bohr mag/cell

     iteration # 12     ecut=    50.00 Ry     beta=0.70
     Davidson diagonalization with overlap
     ethr =  4.60E-09,  avg # of iterations =  3.1

     negative rho (up, down):  0.000E+00 9.775E-04

     Magnetic moment per site:
     atom:    1    charge:   14.7661    magn:    2.9592    constr:    0.0000
     atom:    2    charge:   14.7661    magn:    2.9592    constr:    0.0000

     total cpu time spent up to now is      122.7 secs

     total energy              =    -658.40872296 Ry
     Harris-Foulkes estimate   =    -658.40871661 Ry
     estimated scf accuracy    <       0.00000073 Ry

     total magnetization       =     5.77 Bohr mag/cell
     absolute magnetization    =     6.10 Bohr mag/cell

     iteration # 13     ecut=    50.00 Ry     beta=0.70
     Davidson diagonalization with overlap
     ethr =  2.28E-09,  avg # of iterations =  2.2

     negative rho (up, down):  0.000E+00 9.771E-04

     Magnetic moment per site:
     atom:    1    charge:   14.7662    magn:    2.9587    constr:    0.0000
     atom:    2    charge:   14.7662    magn:    2.9587    constr:    0.0000

     total cpu time spent up to now is      132.3 secs

     total energy              =    -658.40872306 Ry
     Harris-Foulkes estimate   =    -658.40872312 Ry
     estimated scf accuracy    <       0.00000013 Ry

     total magnetization       =     5.77 Bohr mag/cell
     absolute magnetization    =     6.10 Bohr mag/cell

     iteration # 14     ecut=    50.00 Ry     beta=0.70
     Davidson diagonalization with overlap
     ethr =  4.02E-10,  avg # of iterations =  3.3

     negative rho (up, down):  0.000E+00 9.770E-04

     Magnetic moment per site:
     atom:    1    charge:   14.7662    magn:    2.9588    constr:    0.0000
     atom:    2    charge:   14.7662    magn:    2.9588    constr:    0.0000

     total cpu time spent up to now is      143.2 secs

     End of self-consistent calculation

 ------ SPIN UP ------------


          k = 0.0000 0.0000 0.0000 (  1401 PWs)   bands (ev):

   -77.7940 -77.7870 -43.8540 -43.8540 -43.8462 -43.8462 -43.7664 -43.7056
     3.9639   7.0173   8.3285   8.3285   8.4468   8.4468   8.5226   8.5226
     8.5699   8.9625   8.9625  10.2171

          k = 0.0000 0.0000 0.1149 (  1407 PWs)   bands (ev):

   -77.7932 -77.7879 -43.8538 -43.8538 -43.8476 -43.8476 -43.7608 -43.7106
     4.2198   6.8035   8.2871   8.2871   8.4053   8.4053   8.5349   8.6182
     8.6182   8.9517   8.9517   9.2810

          k = 0.0000 0.0000 0.2299 (  1414 PWs)   bands (ev):

   -77.7916 -77.7897 -43.8518 -43.8518 -43.8497 -43.8497 -43.7465 -43.7271
     4.9476   5.9838   8.2726   8.2726   8.3241   8.3241   8.4743   8.5665
     8.7737   8.7737   8.8949   8.8949

          k = 0.0000 0.1155 0.0000 (  1417 PWs)   bands (ev):

   -77.7933 -77.7866 -43.8614 -43.8568 -43.8543 -43.8484 -43.7646 -43.7059
     4.2245   7.1867   8.2377   8.3908   8.3948   8.4244   8.4758   8.5354
     8.5975   8.6614   8.9750  10.9004

          k = 0.0000 0.1155 0.1149 (  1419 PWs)   bands (ev):

   -77.7926 -77.7874 -43.8611 -43.8559 -43.8551 -43.8493 -43.7593 -43.7113
     4.4755   6.9896   8.2141   8.2622   8.3549   8.4258   8.4843   8.5555
     8.6105   8.7250   8.9614   9.9063

          k = 0.0000 0.1155 0.2299 (  1432 PWs)   bands (ev):

   -77.7911 -77.7893 -43.8598 -43.8576 -43.8543 -43.8518 -43.7448 -43.7264
     5.1898   6.2004   8.1593   8.1929   8.3420   8.3987   8.3996   8.4556
     8.7717   8.8893   8.8984   9.1740

          k = 0.0000 0.2309 0.0000 (  1425 PWs)   bands (ev):

   -77.7908 -77.7852 -43.8806 -43.8731 -43.8627 -43.8524 -43.7586 -43.7072
     4.9733   7.5225   7.8837   8.1286   8.3043   8.3663   8.3891   8.6859
     8.7747   8.8918   8.9952  12.2006

          k = 0.0000 0.2309 0.1149 (  1428 PWs)   bands (ev):

   -77.7903 -77.7859 -43.8802 -43.8742 -43.8616 -43.8535 -43.7540 -43.7122
     5.2032   7.3659   7.8532   8.1101   8.2785   8.3868   8.4293   8.6871
     8.7559   8.9255   8.9886  10.7592

          k = 0.0000 0.2309 0.2299 (  1430 PWs)   bands (ev):

   -77.7889 -77.7873 -43.8786 -43.8762 -43.8594 -43.8563 -43.7406 -43.7246
     5.8483   6.7152   7.9293   8.0489   8.3133   8.3944   8.4568   8.5730
     8.8434   8.9389   9.1046   9.6109

          k = 0.0000 0.3464 0.0000 (  1432 PWs)   bands (ev):

   -77.7878 -77.7834 -43.9037 -43.8956 -43.8690 -43.8574 -43.7505 -43.7103
     6.0482   7.4700   7.4967   8.1619   8.2197   8.2463   8.5576   9.0058
     9.0311   9.0887   9.2925  13.7944

          k = 0.0000 0.3464 0.1149 (  1434 PWs)   bands (ev):

   -77.7874 -77.7839 -43.9031 -43.8964 -43.8682 -43.8590 -43.7465 -43.7140
     6.2013   7.3377   7.6078   7.9700   8.3031   8.4831   8.5899   8.8823
     9.0509   9.1254   9.2616  11.7592

          k = 0.0000 0.3464 0.2299 (  1424 PWs)   bands (ev):

   -77.7862 -77.7848 -43.9015 -43.8991 -43.8651 -43.8617 -43.7355 -43.7233
     6.5824   7.0177   7.7675   7.8854   8.4592   8.6728   8.6795   8.7581
     9.0890   9.1245   9.3433  10.1761

          k = 0.0000 0.4619 0.0000 (  1428 PWs)   bands (ev):

   -77.7851 -77.7820 -43.9223 -43.9138 -43.8740 -43.8617 -43.7417 -43.7140
     6.8889   7.2291   7.3132   8.0882   8.1568   8.5157   8.8810   9.0076
     9.3235   9.3679  10.0624  14.2043

          k = 0.0000 0.4619 0.1149 (  1435 PWs)   bands (ev):

   -77.7848 -77.7824 -43.9215 -43.9154 -43.8729 -43.8630 -43.7390 -43.7167
     6.8208   7.2145   7.4816   7.8285   8.2276   8.8156   8.9097   9.1156
     9.3309   9.3714   9.9740  12.9132

          k = 0.0000 0.4619 0.2299 (  1435 PWs)   bands (ev):

   -77.7842 -77.7831 -43.9203 -43.9180 -43.8701 -43.8662 -43.7310 -43.7230
     6.8495   7.0332   7.6590   7.7245   8.4207   8.6784   9.1693   9.3485
     9.3659   9.5398  10.0574  11.2447

          k = 0.0000-0.5774 0.0000 (  1432 PWs)   bands (ev):

   -77.7838 -77.7818 -43.9289 -43.9210 -43.8763 -43.8628 -43.7378 -43.7168
     7.1067   7.1510   7.2056   8.0381   8.1239   8.8606   8.9626   9.0072
     9.4348   9.4856  11.2849  12.4096

          k = 0.0000-0.5774 0.1149 (  1434 PWs)   bands (ev):

   -77.7838 -77.7819 -43.9288 -43.9223 -43.8749 -43.8643 -43.7349 -43.7189
     6.8927   7.1865   7.4612   7.7779   8.1989   8.9108   8.9478   9.3650
     9.4414   9.4814  11.2368  12.3263

          k = 0.0000-0.5774 0.2299 (  1438 PWs)   bands (ev):

   -77.7834 -77.7825 -43.9276 -43.9247 -43.8718 -43.8682 -43.7290 -43.7229
     6.8641   7.0250   7.6418   7.6420   8.4031   8.6736   9.2932   9.4553
     9.4701   9.6528  11.3975  11.9779

          k = 0.1000 0.1732 0.0000 (  1422 PWs)   bands (ev):

   -77.7916 -77.7857 -43.8739 -43.8685 -43.8596 -43.8527 -43.7605 -43.7064
     4.7312   7.4679   8.0411   8.0957   8.3126   8.3190   8.5115   8.6331
     8.6624   8.8463   8.9784  11.8221

          k = 0.1000 0.1732 0.1149 (  1426 PWs)   bands (ev):

   -77.7911 -77.7863 -43.8734 -43.8690 -43.8589 -43.8535 -43.7556 -43.7119
     4.9697   7.2973   7.9590   8.0940   8.3161   8.3605   8.4563   8.6202
     8.7122   8.8740   8.9735  10.5256

          k = 0.1000 0.1732 0.2299 (  1424 PWs)   bands (ev):

   -77.7895 -77.7878 -43.8719 -43.8701 -43.8576 -43.8555 -43.7419 -43.7251
     5.6447   6.5777   7.9867   8.0761   8.3043   8.3530   8.4479   8.5286
     8.8286   8.9267   9.0441   9.4913

          k = 0.1000 0.2887 0.0000 (  1436 PWs)   bands (ev):

   -77.7890 -77.7840 -43.8931 -43.8880 -43.8672 -43.8586 -43.7537 -43.7093
     5.6653   7.6244   7.6747   8.0199   8.1587   8.3103   8.3953   8.8760
     8.9760   9.0030   9.2147  13.2082

          k = 0.1000 0.2887 0.1149 (  1431 PWs)   bands (ev):

   -77.7885 -77.7845 -43.8927 -43.8882 -43.8666 -43.8595 -43.7491 -43.7132
     5.8625   7.4639   7.7411   8.0022   8.2163   8.3367   8.3863   8.8014
     8.9978   9.0432   9.2156  11.4017

          k = 0.1000 0.2887 0.2299 (  1423 PWs)   bands (ev):

   -77.7871 -77.7856 -43.8914 -43.8896 -43.8645 -43.8618 -43.7374 -43.7237
     6.3881   7.0159   7.8640   7.9732   8.2787   8.3413   8.4662   8.6372
     9.1135   9.1637   9.2523   9.9695

          k = 0.1000 0.4041 0.0000 (  1436 PWs)   bands (ev):

   -77.7860 -77.7825 -43.9128 -43.9062 -43.8747 -43.8641 -43.7452 -43.7130
     6.7121   7.3380   7.4938   8.0553   8.1622   8.2399   8.6154   8.9710
     9.1549   9.3568   9.8084  14.6219

          k = 0.1000 0.4041 0.1149 (  1428 PWs)   bands (ev):

   -77.7856 -77.7827 -43.9122 -43.9071 -43.8738 -43.8650 -43.7414 -43.7155
     6.7528   7.3149   7.5732   7.8860   8.2338   8.4922   8.6389   8.8684
     9.1890   9.4060   9.7808  12.5747

          k = 0.1000 0.4041 0.2299 (  1424 PWs)   bands (ev):

   -77.7847 -77.7835 -43.9113 -43.9092 -43.8712 -43.8679 -43.7323 -43.7227
     6.8924   7.1193   7.7406   7.8460   8.3530   8.5792   8.7495   8.7810
     9.3724   9.5088   9.8738  10.8762

          k = 0.1000 0.5196 0.0000 (  1436 PWs)   bands (ev):

   -77.7841 -77.7817 -43.9254 -43.9174 -43.8793 -43.8676 -43.7378 -43.7172
     7.1798   7.1991   7.3360   8.0281   8.1097   8.5934   8.8152   8.9661
     9.3945   9.5299  10.9783  13.3429

          k = 0.1000 0.5196 0.1149 (  1434 PWs)   bands (ev):

   -77.7838 -77.7819 -43.9250 -43.9185 -43.8783 -43.8688 -43.7352 -43.7186
     6.9786   7.2948   7.5281   7.7942   8.1365   8.8224   8.8733   8.9509
     9.4017   9.5898  11.0042  13.1117

          k = 0.1000 0.5196 0.2299 (  1429 PWs)   bands (ev):

   -77.7831 -77.7824 -43.9236 -43.9210 -43.8753 -43.8718 -43.7291 -43.7228
     6.9607   7.1248   7.6862   7.7352   8.2940   8.5841   9.0787   9.1444
     9.4775   9.6444  11.3167  12.1916

          k = 0.2000 0.3464 0.0000 (  1432 PWs)   bands (ev):

   -77.7863 -77.7826 -43.9043 -43.9035 -43.8758 -43.8685 -43.7462 -43.7126
     6.6575   7.4140   7.7749   7.8538   7.9979   8.3036   8.4067   8.9300
     9.0338   9.4006   9.7950  14.6161

          k = 0.2000 0.3464 0.1149 (  1438 PWs)   bands (ev):

   -77.7861 -77.7829 -43.9044 -43.9041 -43.8758 -43.8696 -43.7422 -43.7154
     6.7506   7.3618   7.7881   7.9115   8.1189   8.2675   8.3986   8.8145
     9.1173   9.4419   9.8003  12.4612

          k = 0.2000 0.3464 0.2299 (  1418 PWs)   bands (ev):

   -77.7848 -77.7836 -43.9044 -43.9040 -43.8739 -43.8714 -43.7326 -43.7228
     6.9750   7.2072   7.8689   7.9562   8.2635   8.2702   8.4265   8.5981
     9.4007   9.5080   9.9212  10.8138

          k = 0.2000 0.4619 0.0000 (  1444 PWs)   bands (ev):

   -77.7841 -77.7819 -43.9163 -43.9114 -43.8863 -43.8768 -43.7379 -43.7172
     7.2939   7.4044   7.6174   7.9418   8.0422   8.1461   8.6106   8.8940
     9.2515   9.5931  10.8244  15.0713

          k = 0.2000 0.4619 0.1149 (  1437 PWs)   bands (ev):

   -77.7838 -77.7820 -43.9160 -43.9118 -43.8855 -43.8779 -43.7352 -43.7185
     7.2071   7.4471   7.6567   7.8775   8.0830   8.3061   8.6226   8.7961
     9.3090   9.6280  10.9083  13.8857

          k = 0.2000 0.4619 0.2299 (  1443 PWs)   bands (ev):

   -77.7833 -77.7826 -43.9150 -43.9133 -43.8838 -43.8809 -43.7292 -43.7230
     7.1974   7.3094   7.7958   7.9352   8.1188   8.3530   8.6579   8.6746
     9.5031   9.6468  11.2993  12.3017

          k = 0.2000 0.5774 0.0000 (  1448 PWs)   bands (ev):

   -77.7832 -77.7817 -43.9209 -43.9130 -43.8912 -43.8804 -43.7331 -43.7206
     7.2567   7.5218   7.5487   7.9897   8.0145   8.2820   8.7112   8.8809
     9.3971   9.5920  12.3466  13.0001

          k = 0.2000 0.5774 0.1149 (  1441 PWs)   bands (ev):

   -77.7830 -77.7817 -43.9203 -43.9138 -43.8900 -43.8815 -43.7312 -43.7212
     7.1904   7.5553   7.6977   7.7836   7.9853   8.4632   8.7462   8.7995
     9.4305   9.6298  12.5066  13.0558

          k = 0.2000 0.5774 0.2299 (  1443 PWs)   bands (ev):

   -77.7825 -77.7821 -43.9189 -43.9165 -43.8878 -43.8843 -43.7272 -43.7233
     7.2023   7.3671   7.7867   7.9085   8.0212   8.3481   8.7944   8.8082
     9.5421   9.6481  12.9234  13.1560

          k = 0.3000 0.5196 0.0000 (  1436 PWs)   bands (ev):

   -77.7825 -77.7816 -43.9138 -43.9075 -43.8984 -43.8905 -43.7303 -43.7225
     7.3090   7.7246   7.8630   7.9079   7.9207   8.0103   8.6105   8.8369
     9.4061   9.5748  12.4888  14.7117

          k = 0.3000 0.5196 0.1149 (  1445 PWs)   bands (ev):

   -77.7824 -77.7818 -43.9131 -43.9084 -43.8987 -43.8920 -43.7289 -43.7225
     7.3568   7.6412   7.8054   7.8158   8.0559   8.1289   8.5985   8.7424
     9.4553   9.6054  12.6633  14.7223

          k = 0.3000 0.5196 0.2299 (  1447 PWs)   bands (ev):

   -77.7822 -77.7821 -43.9112 -43.9099 -43.8978 -43.8947 -43.7260 -43.7233
     7.4463   7.5199   7.7942   7.8163   8.1237   8.1959   8.5814   8.6057
     9.5685   9.6332  13.2044  14.1066

 ------ SPIN DOWN ----------


          k = 0.0000 0.0000 0.0000 (  1401 PWs)   bands (ev):

   -74.4108 -74.4029 -40.5178 -40.5178 -40.5137 -40.5090 -40.5090 -40.4413
     4.2185   7.9901  10.2308  10.3235  10.9803  10.9803  11.1449  11.1449
    12.2097  12.2097  12.7956  12.7956

          k = 0.0000 0.0000 0.1149 (  1407 PWs)   bands (ev):

   -74.4100 -74.4039 -40.5173 -40.5173 -40.5102 -40.5102 -40.5070 -40.4478
     4.4752   7.4942  10.0278  10.1725  10.9776  10.9776  11.1133  11.1133
    12.2857  12.2857  12.7576  12.7576

          k = 0.0000 0.0000 0.2299 (  1414 PWs)   bands (ev):

   -74.4082 -74.4058 -40.5152 -40.5152 -40.5126 -40.5126 -40.4895 -40.4668
     5.2139   6.3306   9.9140  10.0317  10.9923  10.9923  11.0455  11.0455
    12.4615  12.4615  12.6406  12.6406

          k = 0.0000 0.1155 0.0000 (  1417 PWs)   bands (ev):

   -74.4099 -74.4023 -40.5264 -40.5208 -40.5181 -40.5114 -40.5113 -40.4418
     4.4800   8.1932  10.2100  10.2703  10.8992  11.0648  11.0965  11.2526
    12.0960  12.1383  12.8166  13.1687

          k = 0.0000 0.1155 0.1149 (  1419 PWs)   bands (ev):

   -74.4091 -74.4032 -40.5264 -40.5199 -40.5192 -40.5123 -40.5045 -40.4482
     4.7336   7.7147   9.9731  10.2179  10.8805  11.0434  11.0914  11.2202
    12.1880  12.2243  12.7686  12.9039

          k = 0.0000 0.1155 0.2299 (  1432 PWs)   bands (ev):

   -74.4074 -74.4052 -40.5249 -40.5221 -40.5179 -40.5150 -40.4871 -40.4656
     5.4656   6.5708   9.9187  10.0697  10.8872  10.9597  11.1021  11.1528
    12.4102  12.4223  12.6278  12.6563

          k = 0.0000 0.2309 0.0000 (  1425 PWs)   bands (ev):

   -74.4070 -74.4007 -40.5488 -40.5403 -40.5275 -40.5160 -40.5042 -40.4435
     5.2417   8.7144  10.0193  10.2801  10.7187  10.9915  11.4175  11.5455
    11.8449  11.9747  12.8497  14.0805

          k = 0.0000 0.2309 0.1149 (  1428 PWs)   bands (ev):

   -74.4064 -74.4013 -40.5489 -40.5417 -40.5263 -40.5172 -40.4981 -40.4490
     5.4851   8.3081   9.8668  10.2838  10.6633  10.9302  11.4024  11.5098
    11.9783  12.0871  12.7792  13.2276

          k = 0.0000 0.2309 0.2299 (  1430 PWs)   bands (ev):

   -74.4049 -74.4029 -40.5475 -40.5446 -40.5237 -40.5202 -40.4819 -40.4633
     6.1898   7.2473   9.9283  10.1602  10.6381  10.7786  11.4009  11.4450
    12.2979  12.3303  12.5879  12.6923

          k = 0.0000 0.3464 0.0000 (  1432 PWs)   bands (ev):

   -74.4035 -74.3985 -40.5761 -40.5669 -40.5350 -40.5218 -40.4944 -40.4472
     6.4173   9.2121   9.8996  10.1660  10.5149  11.2949  11.5404  11.7984
    11.8540  11.9344  12.8670  15.0091

          k = 0.0000 0.3464 0.1149 (  1434 PWs)   bands (ev):

   -74.4031 -74.3990 -40.5759 -40.5682 -40.5339 -40.5234 -40.4892 -40.4511
     6.6390   8.9816   9.7755  10.2654  10.4410  11.0564  11.7607  11.7973
    11.8904  12.0083  12.7714  13.6365

          k = 0.0000 0.3464 0.2299 (  1424 PWs)   bands (ev):

   -74.4017 -74.4001 -40.5747 -40.5718 -40.5305 -40.5265 -40.4758 -40.4616
     7.2658   8.1677   9.9043  10.1918  10.4708  10.7471  11.7777  11.8363
    12.2054  12.2482  12.5321  12.7566

          k = 0.0000 0.4619 0.0000 (  1428 PWs)   bands (ev):

   -74.4004 -74.3969 -40.5980 -40.5883 -40.5408 -40.5267 -40.4841 -40.4517
     7.7737   9.2753   9.8720  10.0060  10.5612  11.2808  11.6682  11.9323
    12.2373  12.2876  12.8704  14.9690

          k = 0.0000 0.4619 0.1149 (  1435 PWs)   bands (ev):

   -74.4001 -74.3973 -40.5977 -40.5903 -40.5395 -40.5282 -40.4804 -40.4543
     7.9286   9.2127   9.7449  10.1456  10.5292  11.2951  11.7545  11.9540
    12.2538  12.2685  12.7489  14.0180

          k = 0.0000 0.4619 0.2299 (  1435 PWs)   bands (ev):

   -74.3993 -74.3981 -40.5968 -40.5940 -40.5362 -40.5318 -40.4706 -40.4611
     8.3397   8.8516   9.8417  10.0683  10.7201  11.0915  11.9793  12.1908
    12.2298  12.3127  12.4834  12.8973

          k = 0.0000-0.5774 0.0000 (  1432 PWs)   bands (ev):

   -74.3990 -74.3965 -40.6061 -40.5967 -40.5434 -40.5281 -40.4793 -40.4549
     8.5995   9.1199   9.8771   9.8873  10.6236  11.1740  11.6206  12.3825
    12.4440  12.6733  12.8699  13.7543

          k = 0.0000-0.5774 0.1149 (  1434 PWs)   bands (ev):

   -74.3989 -74.3967 -40.6062 -40.5985 -40.5419 -40.5298 -40.4758 -40.4568
     8.6571   9.1083   9.8166   9.9752  10.6228  11.4490  11.7190  12.3845
    12.4257  12.4398  12.7290  13.5660

          k = 0.0000-0.5774 0.2299 (  1438 PWs)   bands (ev):

   -74.3983 -74.3973 -40.6053 -40.6020 -40.5383 -40.5340 -40.4683 -40.4612
     8.8082   8.9950   9.8490  10.0024  10.9136  11.5539  11.9905  12.3122
    12.3317  12.4302  12.4500  13.0121

          k = 0.1000 0.1732 0.0000 (  1422 PWs)   bands (ev):

   -74.4079 -74.4012 -40.5409 -40.5349 -40.5241 -40.5161 -40.5065 -40.4427
     4.9923   8.5605  10.0700  10.2915  10.8118  10.9174  11.3254  11.4691
    11.8792  12.0715  12.8230  13.8057

          k = 0.1000 0.1732 0.1149 (  1426 PWs)   bands (ev):

   -74.4074 -74.4018 -40.5408 -40.5355 -40.5234 -40.5170 -40.5000 -40.4488
     5.2393   8.1270   9.8975  10.2749  10.7324  10.9165  11.3108  11.4309
    12.0282  12.1435  12.7602  13.1436

          k = 0.1000 0.1732 0.2299 (  1424 PWs)   bands (ev):

   -74.4056 -74.4036 -40.5396 -40.5373 -40.5219 -40.5194 -40.4834 -40.4639
     5.9545   7.0314   9.9286  10.1380  10.6997  10.8103  11.3149  11.3630
    12.3390  12.3493  12.5860  12.6941

          k = 0.1000 0.2887 0.0000 (  1436 PWs)   bands (ev):

   -74.4049 -74.3993 -40.5635 -40.5577 -40.5329 -40.5230 -40.4982 -40.4459
     5.9666   9.1118   9.9440  10.1632  10.6599  10.9786  11.6046  11.7106
    11.8538  11.9015  12.8214  14.8850

          k = 0.1000 0.2887 0.1149 (  1431 PWs)   bands (ev):

   -74.4043 -74.3998 -40.5636 -40.5584 -40.5322 -40.5240 -40.4923 -40.4502
     6.1993   8.8020   9.8118  10.2219  10.5906  10.8511  11.6382  11.7552
    11.8850  12.0370  12.7380  13.5239

          k = 0.1000 0.2887 0.2299 (  1423 PWs)   bands (ev):

   -74.4028 -74.4011 -40.5628 -40.5606 -40.5300 -40.5268 -40.4779 -40.4620
     6.8687   7.8519   9.9387  10.2362  10.4336  10.6432  11.6555  11.7275
    12.2489  12.2674  12.5255  12.7665

          k = 0.1000 0.4041 0.0000 (  1436 PWs)   bands (ev):

   -74.4014 -74.3975 -40.5869 -40.5792 -40.5418 -40.5294 -40.4880 -40.4503
     7.2644   9.3965   9.9087  10.0156  10.5693  11.3575  11.4076  11.6910
    12.0817  12.3093  12.8150  15.4024

          k = 0.1000 0.4041 0.1149 (  1428 PWs)   bands (ev):

   -74.4010 -74.3977 -40.5868 -40.5806 -40.5408 -40.5306 -40.4832 -40.4529
     7.4582   9.3039   9.7529  10.1597  10.4777  11.0684  11.6860  11.7432
    12.1755  12.2616  12.7259  14.0769

          k = 0.1000 0.4041 0.2299 (  1424 PWs)   bands (ev):

   -74.4000 -74.3986 -40.5861 -40.5837 -40.5378 -40.5340 -40.4720 -40.4609
     7.9949   8.7239   9.8928  10.1752  10.4352  10.7313  11.8370  12.0640
    12.1875  12.3560  12.5637  12.9805

          k = 0.1000 0.5196 0.0000 (  1436 PWs)   bands (ev):

   -74.3991 -74.3965 -40.6018 -40.5924 -40.5472 -40.5336 -40.4793 -40.4552
     8.4763   9.2937   9.8641   9.9306  10.6632  11.1960  11.5538  11.9865
    12.2474  12.8080  12.8333  14.4786

          k = 0.1000 0.5196 0.1149 (  1434 PWs)   bands (ev):

   -74.3989 -74.3967 -40.6017 -40.5941 -40.5461 -40.5350 -40.4759 -40.4566
     8.5763   9.2820   9.7735  10.0788  10.5954  11.2296  11.6626  12.0079
    12.2756  12.5595  12.8930  14.1575

          k = 0.1000 0.5196 0.2299 (  1429 PWs)   bands (ev):

   -74.3982 -74.3973 -40.6006 -40.5976 -40.5427 -40.5386 -40.4682 -40.4609
     8.8274   9.1133   9.8702  10.0851  10.7061  11.0756  11.9149  12.1487
    12.1685  12.3495  12.9569  13.4370

          k = 0.2000 0.3464 0.0000 (  1432 PWs)   bands (ev):

   -74.4018 -74.3976 -40.5768 -40.5763 -40.5431 -40.5346 -40.4892 -40.4497
     7.0845   9.5244   9.9244   9.9464  10.6941  11.0630  11.3614  11.7170
    12.0218  12.3454  12.7563  15.5120

          k = 0.2000 0.3464 0.1149 (  1438 PWs)   bands (ev):

   -74.4015 -74.3980 -40.5774 -40.5770 -40.5430 -40.5359 -40.4841 -40.4527
     7.2883   9.4273   9.7687   9.9940  10.7040  10.7567  11.6061  11.6938
    12.1918  12.2664  12.6991  14.1247

          k = 0.2000 0.3464 0.2299 (  1418 PWs)   bands (ev):

   -74.4002 -74.3989 -40.5780 -40.5776 -40.5412 -40.5383 -40.4724 -40.4608
     7.8716   8.6947   9.9624  10.1756  10.3664  10.4965  11.7385  12.0280
    12.1985  12.3593  12.6213  13.0565

          k = 0.2000 0.4619 0.0000 (  1444 PWs)   bands (ev):

   -74.3991 -74.3966 -40.5910 -40.5851 -40.5553 -40.5444 -40.4795 -40.4552
     8.3364   9.5736   9.7906  10.0307  10.7947  11.2059  11.4215  11.4627
    12.1111  12.7050  12.9729  15.9033

          k = 0.2000 0.4619 0.1149 (  1437 PWs)   bands (ev):

   -74.3988 -74.3968 -40.5909 -40.5860 -40.5546 -40.5458 -40.4758 -40.4563
     8.4867   9.6407   9.7453  10.0333  10.6652  10.9566  11.4439  11.7070
    12.2378  12.4613  13.0824  15.0289

          k = 0.2000 0.4619 0.2299 (  1443 PWs)   bands (ev):

   -74.3983 -74.3975 -40.5903 -40.5885 -40.5528 -40.5494 -40.4681 -40.4608
     8.8832   9.3660   9.9249  10.1410  10.4017  10.5843  11.6477  12.0271
    12.1205  12.3370  13.2874  13.8875

          k = 0.2000 0.5774 0.0000 (  1448 PWs)   bands (ev):

   -74.3980 -74.3964 -40.5964 -40.5871 -40.5610 -40.5486 -40.4739 -40.4592
     9.0541   9.4742   9.6944  10.0907  10.8600  11.1609  11.3268  11.8419
    11.9288  12.6859  13.7740  14.4305

          k = 0.2000 0.5774 0.1149 (  1441 PWs)   bands (ev):

   -74.3978 -74.3964 -40.5961 -40.5885 -40.5600 -40.5499 -40.4711 -40.4594
     9.1401   9.5100   9.7383  10.1531  10.6702  10.9852  11.4598  11.9114
    12.0577  12.4578  13.9037  14.4267

          k = 0.2000 0.5774 0.2299 (  1443 PWs)   bands (ev):

   -74.3974 -74.3969 -40.5948 -40.5921 -40.5576 -40.5535 -40.4657 -40.4612
     9.3306   9.4842   9.9471  10.2434  10.4231  10.6713  11.6879  12.0157
    12.0819  12.1892  14.1604  14.3681

          k = 0.3000 0.5196 0.0000 (  1436 PWs)   bands (ev):

   -74.3973 -74.3963 -40.5879 -40.5807 -40.5698 -40.5606 -40.4707 -40.4615
     9.2183   9.5917   9.6760  10.2033  11.0629  11.1346  11.2043  11.5330
    11.8687  12.6256  14.0293  15.6937

          k = 0.3000 0.5196 0.1149 (  1445 PWs)   bands (ev):

   -74.3973 -74.3965 -40.5872 -40.5821 -40.5703 -40.5623 -40.4685 -40.4610
     9.3360   9.6802   9.7373  10.1626  10.8242  10.8623  11.2468  11.7700
    12.0226  12.3882  14.1937  15.6716

          k = 0.3000 0.5196 0.2299 (  1447 PWs)   bands (ev):

   -74.3970 -74.3969 -40.5856 -40.5843 -40.5694 -40.5658 -40.4644 -40.4613
     9.6245   9.8164   9.9331  10.1438  10.3372  10.4584  11.5111  11.9285
    12.0458  12.1437  14.6049  15.2372

     the Fermi energy is    10.8120 ev

!    total energy              =    -658.40872351 Ry
     Harris-Foulkes estimate   =    -658.40872323 Ry
     estimated scf accuracy    <          3.9E-09 Ry

     total all-electron energy =     -5091.001795 Ry

     The total energy is the sum of the following terms:

     one-electron contribution =    -298.39183375 Ry
     hartree contribution      =     161.32605529 Ry
     xc contribution           =     -69.40741247 Ry
     ewald contribution        =    -299.65716734 Ry
     one-center paw contrib.   =    -152.27786215 Ry
     smearing contrib. (-TS)   =      -0.00050309 Ry

     total magnetization       =     5.77 Bohr mag/cell
     absolute magnetization    =     6.10 Bohr mag/cell

     convergence has been achieved in  14 iterations

     Forces acting on atoms (Ry/au):


     negative rho (up, down):  0.000E+00 9.770E-04
     atom    1 type  1   force =     0.00000000    0.00000000    0.00000000
     atom    2 type  1   force =     0.00000000    0.00000000    0.00000000

     Total force =     0.000000     Total SCF correction =     0.000000


     entering subroutine stress ...


     negative rho (up, down):  0.000E+00 9.770E-04
          total   stress  (Ry/bohr**3)                   (kbar)     P= -293.84
  -0.00211117   0.00000000   0.00000000       -310.56      0.00      0.00
   0.00000000  -0.00211117  -0.00000000          0.00   -310.56     -0.00
   0.00000000   0.00000000  -0.00177015          0.00      0.00   -260.40


     Writing output data file Fe_hcp.save

     init_run     :      5.63s CPU      5.87s WALL (       1 calls)
     electrons    :    140.28s CPU    136.97s WALL (       1 calls)
     forces       :      0.99s CPU      0.93s WALL (       1 calls)
     stress       :      2.77s CPU      3.04s WALL (       1 calls)

     Called by init_run:
     wfcinit      :      3.86s CPU      3.96s WALL (       1 calls)
     potinit      :      1.12s CPU      1.18s WALL (       1 calls)

     Called by electrons:
     c_bands      :    106.38s CPU    101.94s WALL (      14 calls)
     sum_band     :     17.70s CPU     17.80s WALL (      14 calls)
     v_of_rho     :      0.93s CPU      0.99s WALL (      15 calls)
     newd         :      1.17s CPU      1.25s WALL (      15 calls)
     mix_rho      :      0.14s CPU      0.20s WALL (      14 calls)

     Called by c_bands:
     init_us_2    :      1.56s CPU      1.65s WALL (    2604 calls)
     cegterg      :    102.16s CPU     97.48s WALL (    1176 calls)

     Called by *egterg:
     h_psi        :     81.79s CPU     82.56s WALL (    4250 calls)
     s_psi        :      3.84s CPU      2.39s WALL (    4250 calls)
     g_psi        :      0.50s CPU      0.53s WALL (    2990 calls)
     cdiaghg      :      4.27s CPU      4.45s WALL (    4166 calls)

     Called by h_psi:
     add_vuspsi   :      4.27s CPU      2.62s WALL (    4250 calls)

     General routines
     calbec       :      6.05s CPU      3.62s WALL (    5594 calls)
     fft          :      0.55s CPU      0.57s WALL (     499 calls)
     ffts         :      0.04s CPU      0.04s WALL (      58 calls)
     fftw         :     78.45s CPU     82.69s WALL (  145730 calls)
     interpolate  :      0.12s CPU      0.13s WALL (      58 calls)
     davcio       :      0.00s CPU      0.05s WALL (      84 calls)


     PAW routines
     PAW_pot      :     15.05s CPU     15.94s WALL (      15 calls)
     PAW_symme    :      0.02s CPU      0.02s WALL (      29 calls)

     PWSCF        :  2m30.17s CPU     2m27.55s WALL


   This run was terminated on:  22:31:21  11May2015            

=------------------------------------------------------------------------------=
   JOB DONE.
=------------------------------------------------------------------------------=
