
     Program PWSCF v.5.1.2 starts on 11May2015 at 22:11: 5 

     This program is part of the open-source Quantum ESPRESSO suite
     for quantum simulation of materials; please cite
         "P. Giannozzi et al., J. Phys.:Condens. Matter 21 395502 (2009);
          URL http://www.quantum-espresso.org", 
     in publications or presentations arising from this work. More details at
     http://www.quantum-espresso.org/quote

     Serial version
     Reading input from Fe_HCP_5.4_174_10_5.pw.in

     Current dimensions of program PWSCF are:
     Max number of different atomic species (ntypx) = 10
     Max number of k-points (npk) =  40000
     Max angular momentum in pseudopotentials (lmaxx) =  3
               file Fe.pbe-spn-kjpaw_psl.0.2.1.UPF: wavefunction(s)  3D renormalized

     G-vector sticks info
     --------------------
     sticks:   dense  smooth     PW     G-vecs:    dense   smooth      PW
     Sum         499     397    121                15833    11263    1943

     Generating pointlists ...
     new r_m :   0.4125 (alat units)  2.2275 (a.u.) for type    1


     bravais-lattice index     =            4
     lattice parameter (alat)  =       5.4000  a.u.
     unit-cell volume          =     237.2800 (a.u.)^3
     number of atoms/cell      =            2
     number of atomic types    =            1
     number of electrons       =        32.00
     number of Kohn-Sham states=           20
     kinetic-energy cutoff     =      50.0000  Ry
     charge density cutoff     =     250.0000  Ry
     convergence threshold     =      1.0E-08
     mixing beta               =       0.7000
     number of iterations used =            8  plain     mixing
     Exchange-correlation      =  SLA  PW   PBX  PBC ( 1  4  3  4 0 0)

     celldm(1)=   5.400000  celldm(2)=   0.000000  celldm(3)=   1.740000
     celldm(4)=   0.000000  celldm(5)=   0.000000  celldm(6)=   0.000000

     crystal axes: (cart. coord. in units of alat)
               a(1) = (   1.000000   0.000000   0.000000 )  
               a(2) = (  -0.500000   0.866025   0.000000 )  
               a(3) = (   0.000000   0.000000   1.740000 )  

     reciprocal axes: (cart. coord. in units 2 pi/alat)
               b(1) = (  1.000000  0.577350 -0.000000 )  
               b(2) = (  0.000000  1.154701  0.000000 )  
               b(3) = (  0.000000 -0.000000  0.574713 )  


     PseudoPot. # 1 for Fe read from file:
     ./Fe.pbe-spn-kjpaw_psl.0.2.1.UPF
     MD5 check sum: a0a08122d52b112de96d1da1d7dd020f
     Pseudo is Projector augmented-wave + core cor, Zval = 16.0
     Generated using "atomic" code by A. Dal Corso  v.5.0.2 svn rev. 9415
     Shape of augmentation charge: PSQ
     Using radial grid of 1191 points,  6 beta functions with: 
                l(1) =   0
                l(2) =   0
                l(3) =   1
                l(4) =   1
                l(5) =   2
                l(6) =   2
     Q(r) pseudized with 0 coefficients 


     atomic species   valence    mass     pseudopotential
        Fe            16.00    55.85000     Fe( 1.00)

     Starting magnetic structure 
     atomic species   magnetization
        Fe           0.700

     24 Sym. Ops., with inversion, found (12 have fractional translation)



   Cartesian axes

     site n.     atom                  positions (alat units)
         1           Fe  tau(   1) = (  -0.0000000   0.5773503   0.4350000  )
         2           Fe  tau(   2) = (   0.5000000   0.2886751   1.3050000  )

     number of k points=    84  Marzari-Vanderbilt smearing, width (Ry)=  0.0250
                       cart. coord. in units 2pi/alat
        k(    1) = (   0.0000000   0.0000000   0.0000000), wk =   0.0020000
        k(    2) = (   0.0000000   0.0000000   0.1149425), wk =   0.0040000
        k(    3) = (   0.0000000   0.0000000   0.2298851), wk =   0.0040000
        k(    4) = (   0.0000000   0.1154701   0.0000000), wk =   0.0120000
        k(    5) = (   0.0000000   0.1154701   0.1149425), wk =   0.0240000
        k(    6) = (   0.0000000   0.1154701   0.2298851), wk =   0.0240000
        k(    7) = (   0.0000000   0.2309401   0.0000000), wk =   0.0120000
        k(    8) = (   0.0000000   0.2309401   0.1149425), wk =   0.0240000
        k(    9) = (   0.0000000   0.2309401   0.2298851), wk =   0.0240000
        k(   10) = (   0.0000000   0.3464102   0.0000000), wk =   0.0120000
        k(   11) = (   0.0000000   0.3464102   0.1149425), wk =   0.0240000
        k(   12) = (   0.0000000   0.3464102   0.2298851), wk =   0.0240000
        k(   13) = (   0.0000000   0.4618802   0.0000000), wk =   0.0120000
        k(   14) = (   0.0000000   0.4618802   0.1149425), wk =   0.0240000
        k(   15) = (   0.0000000   0.4618802   0.2298851), wk =   0.0240000
        k(   16) = (   0.0000000  -0.5773503   0.0000000), wk =   0.0060000
        k(   17) = (   0.0000000  -0.5773503   0.1149425), wk =   0.0120000
        k(   18) = (   0.0000000  -0.5773503   0.2298851), wk =   0.0120000
        k(   19) = (   0.1000000   0.1732051   0.0000000), wk =   0.0120000
        k(   20) = (   0.1000000   0.1732051   0.1149425), wk =   0.0240000
        k(   21) = (   0.1000000   0.1732051   0.2298851), wk =   0.0240000
        k(   22) = (   0.1000000   0.2886751   0.0000000), wk =   0.0240000
        k(   23) = (   0.1000000   0.2886751   0.1149425), wk =   0.0480000
        k(   24) = (   0.1000000   0.2886751   0.2298851), wk =   0.0480000
        k(   25) = (   0.1000000   0.4041452   0.0000000), wk =   0.0240000
        k(   26) = (   0.1000000   0.4041452   0.1149425), wk =   0.0480000
        k(   27) = (   0.1000000   0.4041452   0.2298851), wk =   0.0480000
        k(   28) = (   0.1000000   0.5196152   0.0000000), wk =   0.0240000
        k(   29) = (   0.1000000   0.5196152   0.1149425), wk =   0.0480000
        k(   30) = (   0.1000000   0.5196152   0.2298851), wk =   0.0480000
        k(   31) = (   0.2000000   0.3464102   0.0000000), wk =   0.0120000
        k(   32) = (   0.2000000   0.3464102   0.1149425), wk =   0.0240000
        k(   33) = (   0.2000000   0.3464102   0.2298851), wk =   0.0240000
        k(   34) = (   0.2000000   0.4618802   0.0000000), wk =   0.0240000
        k(   35) = (   0.2000000   0.4618802   0.1149425), wk =   0.0480000
        k(   36) = (   0.2000000   0.4618802   0.2298851), wk =   0.0480000
        k(   37) = (   0.2000000   0.5773503   0.0000000), wk =   0.0120000
        k(   38) = (   0.2000000   0.5773503   0.1149425), wk =   0.0240000
        k(   39) = (   0.2000000   0.5773503   0.2298851), wk =   0.0240000
        k(   40) = (   0.3000000   0.5196152   0.0000000), wk =   0.0120000
        k(   41) = (   0.3000000   0.5196152   0.1149425), wk =   0.0240000
        k(   42) = (   0.3000000   0.5196152   0.2298851), wk =   0.0240000
        k(   43) = (   0.0000000   0.0000000   0.0000000), wk =   0.0020000
        k(   44) = (   0.0000000   0.0000000   0.1149425), wk =   0.0040000
        k(   45) = (   0.0000000   0.0000000   0.2298851), wk =   0.0040000
        k(   46) = (   0.0000000   0.1154701   0.0000000), wk =   0.0120000
        k(   47) = (   0.0000000   0.1154701   0.1149425), wk =   0.0240000
        k(   48) = (   0.0000000   0.1154701   0.2298851), wk =   0.0240000
        k(   49) = (   0.0000000   0.2309401   0.0000000), wk =   0.0120000
        k(   50) = (   0.0000000   0.2309401   0.1149425), wk =   0.0240000
        k(   51) = (   0.0000000   0.2309401   0.2298851), wk =   0.0240000
        k(   52) = (   0.0000000   0.3464102   0.0000000), wk =   0.0120000
        k(   53) = (   0.0000000   0.3464102   0.1149425), wk =   0.0240000
        k(   54) = (   0.0000000   0.3464102   0.2298851), wk =   0.0240000
        k(   55) = (   0.0000000   0.4618802   0.0000000), wk =   0.0120000
        k(   56) = (   0.0000000   0.4618802   0.1149425), wk =   0.0240000
        k(   57) = (   0.0000000   0.4618802   0.2298851), wk =   0.0240000
        k(   58) = (   0.0000000  -0.5773503   0.0000000), wk =   0.0060000
        k(   59) = (   0.0000000  -0.5773503   0.1149425), wk =   0.0120000
        k(   60) = (   0.0000000  -0.5773503   0.2298851), wk =   0.0120000
        k(   61) = (   0.1000000   0.1732051   0.0000000), wk =   0.0120000
        k(   62) = (   0.1000000   0.1732051   0.1149425), wk =   0.0240000
        k(   63) = (   0.1000000   0.1732051   0.2298851), wk =   0.0240000
        k(   64) = (   0.1000000   0.2886751   0.0000000), wk =   0.0240000
        k(   65) = (   0.1000000   0.2886751   0.1149425), wk =   0.0480000
        k(   66) = (   0.1000000   0.2886751   0.2298851), wk =   0.0480000
        k(   67) = (   0.1000000   0.4041452   0.0000000), wk =   0.0240000
        k(   68) = (   0.1000000   0.4041452   0.1149425), wk =   0.0480000
        k(   69) = (   0.1000000   0.4041452   0.2298851), wk =   0.0480000
        k(   70) = (   0.1000000   0.5196152   0.0000000), wk =   0.0240000
        k(   71) = (   0.1000000   0.5196152   0.1149425), wk =   0.0480000
        k(   72) = (   0.1000000   0.5196152   0.2298851), wk =   0.0480000
        k(   73) = (   0.2000000   0.3464102   0.0000000), wk =   0.0120000
        k(   74) = (   0.2000000   0.3464102   0.1149425), wk =   0.0240000
        k(   75) = (   0.2000000   0.3464102   0.2298851), wk =   0.0240000
        k(   76) = (   0.2000000   0.4618802   0.0000000), wk =   0.0240000
        k(   77) = (   0.2000000   0.4618802   0.1149425), wk =   0.0480000
        k(   78) = (   0.2000000   0.4618802   0.2298851), wk =   0.0480000
        k(   79) = (   0.2000000   0.5773503   0.0000000), wk =   0.0120000
        k(   80) = (   0.2000000   0.5773503   0.1149425), wk =   0.0240000
        k(   81) = (   0.2000000   0.5773503   0.2298851), wk =   0.0240000
        k(   82) = (   0.3000000   0.5196152   0.0000000), wk =   0.0120000
        k(   83) = (   0.3000000   0.5196152   0.1149425), wk =   0.0240000
        k(   84) = (   0.3000000   0.5196152   0.2298851), wk =   0.0240000

     Dense  grid:    15833 G-vectors     FFT dimensions: (  27,  27,  48)

     Smooth grid:    11263 G-vectors     FFT dimensions: (  25,  25,  45)

     Largest allocated arrays     est. size (Mb)     dimensions
        Kohn-Sham Wavefunctions         0.44 Mb     (    1434,   20)
        NL pseudopotentials             0.79 Mb     (    1434,   36)
        Each V/rho on FFT grid          1.07 Mb     (   34992,   2)
        Each G-vector array             0.12 Mb     (   15833)
        G-vector shells                 0.01 Mb     (     829)
     Largest temporary arrays     est. size (Mb)     dimensions
        Auxiliary wavefunctions         1.75 Mb     (    1434,   80)
        Each subspace H/S matrix        0.10 Mb     (      80,   80)
        Each <psi_i|beta_j> matrix      0.01 Mb     (      36,   20)
        Arrays for rho mixing           4.27 Mb     (   34992,    8)

     Check: negative/imaginary core charge=   -0.000319    0.000000

     Initial potential from superposition of free atoms

     starting charge   31.99912, renormalised to   32.00000
     Starting wfc are   26 randomized atomic wfcs

     total cpu time spent up to now is        5.8 secs

     Self-consistent Calculation

     iteration #  1     ecut=    50.00 Ry     beta=0.70
     Davidson diagonalization with overlap
     ethr =  1.00E-02,  avg # of iterations =  2.0

     negative rho (up, down):  0.000E+00 1.073E-03

     Magnetic moment per site:
     atom:    1    charge:   14.5955    magn:    5.9390    constr:    0.0000
     atom:    2    charge:   14.5955    magn:    5.9390    constr:    0.0000

     total cpu time spent up to now is       14.3 secs

     total energy              =    -657.96597138 Ry
     Harris-Foulkes estimate   =    -656.24654650 Ry
     estimated scf accuracy    <       2.84154845 Ry

     total magnetization       =     8.00 Bohr mag/cell
     absolute magnetization    =     8.25 Bohr mag/cell

     iteration #  2     ecut=    50.00 Ry     beta=0.70
     Davidson diagonalization with overlap
     ethr =  8.88E-03,  avg # of iterations =  1.6

     negative rho (up, down):  0.000E+00 1.050E-03

     Magnetic moment per site:
     atom:    1    charge:   14.8223    magn:    4.0159    constr:    0.0000
     atom:    2    charge:   14.8223    magn:    4.0159    constr:    0.0000

     total cpu time spent up to now is       22.1 secs

     total energy              =    -658.14435875 Ry
     Harris-Foulkes estimate   =    -658.18128203 Ry
     estimated scf accuracy    <       0.83169033 Ry

     total magnetization       =     6.57 Bohr mag/cell
     absolute magnetization    =     6.86 Bohr mag/cell

     iteration #  3     ecut=    50.00 Ry     beta=0.70
     Davidson diagonalization with overlap
     ethr =  2.60E-03,  avg # of iterations =  3.1

     negative rho (up, down):  0.000E+00 1.234E-03

     Magnetic moment per site:
     atom:    1    charge:   14.7072    magn:    3.0516    constr:    0.0000
     atom:    2    charge:   14.7072    magn:    3.0516    constr:    0.0000

     total cpu time spent up to now is       31.5 secs

     total energy              =    -658.17768795 Ry
     Harris-Foulkes estimate   =    -658.65102411 Ry
     estimated scf accuracy    <       1.31984700 Ry

     total magnetization       =     6.69 Bohr mag/cell
     absolute magnetization    =     6.96 Bohr mag/cell

     iteration #  4     ecut=    50.00 Ry     beta=0.70
     Davidson diagonalization with overlap
     ethr =  2.60E-03,  avg # of iterations =  2.7

     negative rho (up, down):  0.000E+00 1.000E-03

     Magnetic moment per site:
     atom:    1    charge:   14.7680    magn:    2.9715    constr:    0.0000
     atom:    2    charge:   14.7680    magn:    2.9715    constr:    0.0000

     total cpu time spent up to now is       40.4 secs

     total energy              =    -658.40375272 Ry
     Harris-Foulkes estimate   =    -658.40416275 Ry
     estimated scf accuracy    <       0.00707317 Ry

     total magnetization       =     5.83 Bohr mag/cell
     absolute magnetization    =     6.22 Bohr mag/cell

     iteration #  5     ecut=    50.00 Ry     beta=0.70
     Davidson diagonalization with overlap
     ethr =  2.21E-05,  avg # of iterations =  3.2

     negative rho (up, down):  0.000E+00 1.013E-03

     Magnetic moment per site:
     atom:    1    charge:   14.7562    magn:    2.9833    constr:    0.0000
     atom:    2    charge:   14.7562    magn:    2.9833    constr:    0.0000

     total cpu time spent up to now is       52.2 secs

     total energy              =    -658.41096333 Ry
     Harris-Foulkes estimate   =    -658.41000818 Ry
     estimated scf accuracy    <       0.00080097 Ry

     total magnetization       =     5.80 Bohr mag/cell
     absolute magnetization    =     6.18 Bohr mag/cell

     iteration #  6     ecut=    50.00 Ry     beta=0.70
     Davidson diagonalization with overlap
     ethr =  2.50E-06,  avg # of iterations =  1.9

     negative rho (up, down):  0.000E+00 1.001E-03

     Magnetic moment per site:
     atom:    1    charge:   14.7563    magn:    2.9784    constr:    0.0000
     atom:    2    charge:   14.7563    magn:    2.9784    constr:    0.0000

     total cpu time spent up to now is       60.1 secs

     total energy              =    -658.41156750 Ry
     Harris-Foulkes estimate   =    -658.41119562 Ry
     estimated scf accuracy    <       0.00054969 Ry

     total magnetization       =     5.79 Bohr mag/cell
     absolute magnetization    =     6.16 Bohr mag/cell

     iteration #  7     ecut=    50.00 Ry     beta=0.70
     Davidson diagonalization with overlap
     ethr =  1.72E-06,  avg # of iterations =  1.8

     negative rho (up, down):  0.000E+00 9.913E-04

     Magnetic moment per site:
     atom:    1    charge:   14.7628    magn:    2.9576    constr:    0.0000
     atom:    2    charge:   14.7628    magn:    2.9576    constr:    0.0000

     total cpu time spent up to now is       67.9 secs

     total energy              =    -658.41214053 Ry
     Harris-Foulkes estimate   =    -658.41167291 Ry
     estimated scf accuracy    <       0.00044054 Ry

     total magnetization       =     5.78 Bohr mag/cell
     absolute magnetization    =     6.15 Bohr mag/cell

     iteration #  8     ecut=    50.00 Ry     beta=0.70
     Davidson diagonalization with overlap
     ethr =  1.38E-06,  avg # of iterations =  2.5

     negative rho (up, down):  0.000E+00 9.511E-04

     Magnetic moment per site:
     atom:    1    charge:   14.7608    magn:    2.9369    constr:    0.0000
     atom:    2    charge:   14.7608    magn:    2.9369    constr:    0.0000

     total cpu time spent up to now is       76.5 secs

     total energy              =    -658.41054549 Ry
     Harris-Foulkes estimate   =    -658.41239188 Ry
     estimated scf accuracy    <       0.00039363 Ry

     total magnetization       =     5.76 Bohr mag/cell
     absolute magnetization    =     6.11 Bohr mag/cell

     iteration #  9     ecut=    50.00 Ry     beta=0.70
     Davidson diagonalization with overlap
     ethr =  1.23E-06,  avg # of iterations =  3.2

     negative rho (up, down):  0.000E+00 9.502E-04

     Magnetic moment per site:
     atom:    1    charge:   14.7608    magn:    2.9371    constr:    0.0000
     atom:    2    charge:   14.7608    magn:    2.9371    constr:    0.0000

     total cpu time spent up to now is       86.6 secs

     total energy              =    -658.41191907 Ry
     Harris-Foulkes estimate   =    -658.41109133 Ry
     estimated scf accuracy    <       0.00038794 Ry

     total magnetization       =     5.74 Bohr mag/cell
     absolute magnetization    =     6.07 Bohr mag/cell

     iteration # 10     ecut=    50.00 Ry     beta=0.70
     Davidson diagonalization with overlap
     ethr =  1.21E-06,  avg # of iterations =  1.1

     negative rho (up, down):  0.000E+00 9.421E-04

     Magnetic moment per site:
     atom:    1    charge:   14.7605    magn:    2.9325    constr:    0.0000
     atom:    2    charge:   14.7605    magn:    2.9325    constr:    0.0000

     total cpu time spent up to now is       94.2 secs

     total energy              =    -658.41193040 Ry
     Harris-Foulkes estimate   =    -658.41193596 Ry
     estimated scf accuracy    <       0.00026890 Ry

     total magnetization       =     5.74 Bohr mag/cell
     absolute magnetization    =     6.07 Bohr mag/cell

     iteration # 11     ecut=    50.00 Ry     beta=0.70
     Davidson diagonalization with overlap
     ethr =  8.40E-07,  avg # of iterations =  1.4

     negative rho (up, down):  0.000E+00 9.396E-04

     Magnetic moment per site:
     atom:    1    charge:   14.7608    magn:    2.9273    constr:    0.0000
     atom:    2    charge:   14.7608    magn:    2.9273    constr:    0.0000

     total cpu time spent up to now is      102.2 secs

     total energy              =    -658.41213075 Ry
     Harris-Foulkes estimate   =    -658.41194816 Ry
     estimated scf accuracy    <       0.00040404 Ry

     total magnetization       =     5.74 Bohr mag/cell
     absolute magnetization    =     6.06 Bohr mag/cell

     iteration # 12     ecut=    50.00 Ry     beta=0.70
     Davidson diagonalization with overlap
     ethr =  8.40E-07,  avg # of iterations =  1.0

     negative rho (up, down):  0.000E+00 9.396E-04

     Magnetic moment per site:
     atom:    1    charge:   14.7605    magn:    2.9275    constr:    0.0000
     atom:    2    charge:   14.7605    magn:    2.9275    constr:    0.0000

     total cpu time spent up to now is      110.5 secs

     total energy              =    -658.41220644 Ry
     Harris-Foulkes estimate   =    -658.41213613 Ry
     estimated scf accuracy    <       0.00035297 Ry

     total magnetization       =     5.74 Bohr mag/cell
     absolute magnetization    =     6.06 Bohr mag/cell

     iteration # 13     ecut=    50.00 Ry     beta=0.70
     Davidson diagonalization with overlap
     ethr =  8.40E-07,  avg # of iterations =  1.0

     negative rho (up, down):  0.000E+00 9.414E-04

     Magnetic moment per site:
     atom:    1    charge:   14.7603    magn:    2.9302    constr:    0.0000
     atom:    2    charge:   14.7603    magn:    2.9302    constr:    0.0000

     total cpu time spent up to now is      119.8 secs

     total energy              =    -658.41233775 Ry
     Harris-Foulkes estimate   =    -658.41220741 Ry
     estimated scf accuracy    <       0.00032352 Ry

     total magnetization       =     5.74 Bohr mag/cell
     absolute magnetization    =     6.06 Bohr mag/cell

     iteration # 14     ecut=    50.00 Ry     beta=0.70
     Davidson diagonalization with overlap
     ethr =  8.40E-07,  avg # of iterations =  1.0

     negative rho (up, down):  0.000E+00 9.418E-04

     Magnetic moment per site:
     atom:    1    charge:   14.7602    magn:    2.9307    constr:    0.0000
     atom:    2    charge:   14.7602    magn:    2.9307    constr:    0.0000

     total cpu time spent up to now is      128.9 secs

     total energy              =    -658.41235892 Ry
     Harris-Foulkes estimate   =    -658.41233946 Ry
     estimated scf accuracy    <       0.00023704 Ry

     total magnetization       =     5.74 Bohr mag/cell
     absolute magnetization    =     6.06 Bohr mag/cell

     iteration # 15     ecut=    50.00 Ry     beta=0.70
     Davidson diagonalization with overlap
     ethr =  7.41E-07,  avg # of iterations =  1.0

     negative rho (up, down):  0.000E+00 9.433E-04

     Magnetic moment per site:
     atom:    1    charge:   14.7601    magn:    2.9324    constr:    0.0000
     atom:    2    charge:   14.7601    magn:    2.9324    constr:    0.0000

     total cpu time spent up to now is      136.6 secs

     total energy              =    -658.41241124 Ry
     Harris-Foulkes estimate   =    -658.41235917 Ry
     estimated scf accuracy    <       0.00022100 Ry

     total magnetization       =     5.74 Bohr mag/cell
     absolute magnetization    =     6.06 Bohr mag/cell

     iteration # 16     ecut=    50.00 Ry     beta=0.70
     Davidson diagonalization with overlap
     ethr =  6.91E-07,  avg # of iterations =  1.0

     negative rho (up, down):  0.000E+00 9.456E-04

     Magnetic moment per site:
     atom:    1    charge:   14.7598    magn:    2.9351    constr:    0.0000
     atom:    2    charge:   14.7598    magn:    2.9351    constr:    0.0000

     total cpu time spent up to now is      144.1 secs

     total energy              =    -658.41248075 Ry
     Harris-Foulkes estimate   =    -658.41241201 Ry
     estimated scf accuracy    <       0.00017922 Ry

     total magnetization       =     5.74 Bohr mag/cell
     absolute magnetization    =     6.06 Bohr mag/cell

     iteration # 17     ecut=    50.00 Ry     beta=0.70
     Davidson diagonalization with overlap
     ethr =  5.60E-07,  avg # of iterations =  1.1

     negative rho (up, down):  0.000E+00 9.460E-04

     Magnetic moment per site:
     atom:    1    charge:   14.7598    magn:    2.9355    constr:    0.0000
     atom:    2    charge:   14.7598    magn:    2.9355    constr:    0.0000

     total cpu time spent up to now is      152.0 secs

     total energy              =    -658.41248450 Ry
     Harris-Foulkes estimate   =    -658.41248270 Ry
     estimated scf accuracy    <       0.00012243 Ry

     total magnetization       =     5.74 Bohr mag/cell
     absolute magnetization    =     6.06 Bohr mag/cell

     iteration # 18     ecut=    50.00 Ry     beta=0.70
     Davidson diagonalization with overlap
     ethr =  3.83E-07,  avg # of iterations =  1.0

     negative rho (up, down):  0.000E+00 9.570E-04

     Magnetic moment per site:
     atom:    1    charge:   14.7588    magn:    2.9486    constr:    0.0000
     atom:    2    charge:   14.7588    magn:    2.9486    constr:    0.0000

     total cpu time spent up to now is      159.8 secs

     total energy              =    -658.41255832 Ry
     Harris-Foulkes estimate   =    -658.41248471 Ry
     estimated scf accuracy    <       0.00011700 Ry

     total magnetization       =     5.74 Bohr mag/cell
     absolute magnetization    =     6.07 Bohr mag/cell

     iteration # 19     ecut=    50.00 Ry     beta=0.70
     Davidson diagonalization with overlap
     ethr =  3.66E-07,  avg # of iterations =  2.2

     negative rho (up, down):  0.000E+00 9.568E-04

     Magnetic moment per site:
     atom:    1    charge:   14.7588    magn:    2.9484    constr:    0.0000
     atom:    2    charge:   14.7588    magn:    2.9484    constr:    0.0000

     total cpu time spent up to now is      168.4 secs

     total energy              =    -658.41261750 Ry
     Harris-Foulkes estimate   =    -658.41260054 Ry
     estimated scf accuracy    <       0.00000042 Ry

     total magnetization       =     5.75 Bohr mag/cell
     absolute magnetization    =     6.08 Bohr mag/cell

     iteration # 20     ecut=    50.00 Ry     beta=0.70
     Davidson diagonalization with overlap
     ethr =  1.32E-09,  avg # of iterations =  4.0

     negative rho (up, down):  0.000E+00 9.569E-04

     Magnetic moment per site:
     atom:    1    charge:   14.7588    magn:    2.9484    constr:    0.0000
     atom:    2    charge:   14.7588    magn:    2.9484    constr:    0.0000

     total cpu time spent up to now is      180.7 secs

     total energy              =    -658.41262072 Ry
     Harris-Foulkes estimate   =    -658.41261849 Ry
     estimated scf accuracy    <       0.00000010 Ry

     total magnetization       =     5.75 Bohr mag/cell
     absolute magnetization    =     6.08 Bohr mag/cell

     iteration # 21     ecut=    50.00 Ry     beta=0.70
     Davidson diagonalization with overlap
     ethr =  3.03E-10,  avg # of iterations =  2.7

     negative rho (up, down):  0.000E+00 9.576E-04

     Magnetic moment per site:
     atom:    1    charge:   14.7588    magn:    2.9493    constr:    0.0000
     atom:    2    charge:   14.7588    magn:    2.9493    constr:    0.0000

     total cpu time spent up to now is      189.5 secs

     total energy              =    -658.41262065 Ry
     Harris-Foulkes estimate   =    -658.41262082 Ry
     estimated scf accuracy    <       0.00000024 Ry

     total magnetization       =     5.75 Bohr mag/cell
     absolute magnetization    =     6.08 Bohr mag/cell

     iteration # 22     ecut=    50.00 Ry     beta=0.70
     Davidson diagonalization with overlap
     ethr =  3.03E-10,  avg # of iterations =  3.8

     negative rho (up, down):  0.000E+00 9.586E-04

     Magnetic moment per site:
     atom:    1    charge:   14.7587    magn:    2.9504    constr:    0.0000
     atom:    2    charge:   14.7587    magn:    2.9504    constr:    0.0000

     total cpu time spent up to now is      201.0 secs

     total energy              =    -658.41261902 Ry
     Harris-Foulkes estimate   =    -658.41262095 Ry
     estimated scf accuracy    <       0.00000008 Ry

     total magnetization       =     5.75 Bohr mag/cell
     absolute magnetization    =     6.08 Bohr mag/cell

     iteration # 23     ecut=    50.00 Ry     beta=0.70
     Davidson diagonalization with overlap
     ethr =  2.63E-10,  avg # of iterations =  3.9

     negative rho (up, down):  0.000E+00 9.587E-04

     Magnetic moment per site:
     atom:    1    charge:   14.7587    magn:    2.9503    constr:    0.0000
     atom:    2    charge:   14.7587    magn:    2.9503    constr:    0.0000

     total cpu time spent up to now is      213.0 secs

     total energy              =    -658.41262052 Ry
     Harris-Foulkes estimate   =    -658.41261941 Ry
     estimated scf accuracy    <       0.00000098 Ry

     total magnetization       =     5.75 Bohr mag/cell
     absolute magnetization    =     6.08 Bohr mag/cell

     iteration # 24     ecut=    50.00 Ry     beta=0.70
     Davidson diagonalization with overlap
     ethr =  2.63E-10,  avg # of iterations =  2.0

     negative rho (up, down):  0.000E+00 9.580E-04

     Magnetic moment per site:
     atom:    1    charge:   14.7587    magn:    2.9496    constr:    0.0000
     atom:    2    charge:   14.7587    magn:    2.9496    constr:    0.0000

     total cpu time spent up to now is      221.9 secs

     total energy              =    -658.41262134 Ry
     Harris-Foulkes estimate   =    -658.41262053 Ry
     estimated scf accuracy    <       0.00000054 Ry

     total magnetization       =     5.75 Bohr mag/cell
     absolute magnetization    =     6.08 Bohr mag/cell

     iteration # 25     ecut=    50.00 Ry     beta=0.70
     Davidson diagonalization with overlap
     ethr =  2.63E-10,  avg # of iterations =  3.0

     negative rho (up, down):  0.000E+00 9.580E-04

     Magnetic moment per site:
     atom:    1    charge:   14.7587    magn:    2.9496    constr:    0.0000
     atom:    2    charge:   14.7587    magn:    2.9496    constr:    0.0000

     total cpu time spent up to now is      232.3 secs

     End of self-consistent calculation

 ------ SPIN UP ------------


          k = 0.0000 0.0000 0.0000 (  1377 PWs)   bands (ev):

   -77.6341 -77.6273 -43.6861 -43.6861 -43.6777 -43.6777 -43.6183 -43.5521
     4.0698   7.1372   8.4854   8.4854   8.6060   8.6060   8.6928   8.6928
     8.7094   9.1414   9.1414  10.3513

          k = 0.0000 0.0000 0.1149 (  1395 PWs)   bands (ev):

   -77.6337 -77.6282 -43.6857 -43.6857 -43.6789 -43.6789 -43.6119 -43.5597
     4.3264   6.9239   8.4447   8.4447   8.5643   8.5643   8.6737   8.7887
     8.7887   9.1298   9.1298   9.4246

          k = 0.0000 0.0000 0.2299 (  1401 PWs)   bands (ev):

   -77.6321 -77.6299 -43.6836 -43.6836 -43.6812 -43.6812 -43.5965 -43.5767
     5.0601   6.1021   8.4303   8.4303   8.4823   8.4823   8.6117   8.7049
     8.9470   8.9470   9.0711   9.0711

          k = 0.0000 0.1155 0.0000 (  1391 PWs)   bands (ev):

   -77.6336 -77.6266 -43.6934 -43.6882 -43.6861 -43.6792 -43.6160 -43.5538
     4.3321   7.3086   8.3911   8.5526   8.5558   8.5831   8.6450   8.6962
     8.7637   8.8042   9.1542  11.0567

          k = 0.0000 0.1155 0.1149 (  1401 PWs)   bands (ev):

   -77.6330 -77.6275 -43.6930 -43.6876 -43.6869 -43.6806 -43.6102 -43.5602
     4.5843   7.1117   8.3700   8.4172   8.5153   8.5798   8.6450   8.7131
     8.7790   8.8817   9.1396  10.0727

          k = 0.0000 0.1155 0.2299 (  1413 PWs)   bands (ev):

   -77.6315 -77.6293 -43.6915 -43.6893 -43.6857 -43.6832 -43.5948 -43.5759
     5.3036   6.3212   8.3099   8.3473   8.5018   8.5445   8.5596   8.6070
     8.9440   9.0560   9.0741   9.3441

          k = 0.0000 0.2309 0.0000 (  1401 PWs)   bands (ev):

   -77.6310 -77.6252 -43.7134 -43.7058 -43.6939 -43.6838 -43.6096 -43.5554
     5.0862   7.6510   8.0352   8.2768   8.4573   8.5332   8.5547   8.8494
     8.9399   9.0392   9.1749  12.3747

          k = 0.0000 0.2309 0.1149 (  1417 PWs)   bands (ev):

   -77.6306 -77.6260 -43.7130 -43.7068 -43.6935 -43.6850 -43.6048 -43.5611
     5.3176   7.4956   7.9995   8.2615   8.4294   8.5531   8.5894   8.8521
     8.9219   9.0780   9.1661  10.9356

          k = 0.0000 0.2309 0.2299 (  1412 PWs)   bands (ev):

   -77.6291 -77.6274 -43.7111 -43.7087 -43.6911 -43.6879 -43.5906 -43.5741
     5.9684   6.8413   8.0745   8.1993   8.4616   8.5478   8.6225   8.7386
     9.0131   9.1127   9.2681   9.7830

          k = 0.0000 0.3464 0.0000 (  1414 PWs)   bands (ev):

   -77.6278 -77.6234 -43.7373 -43.7290 -43.7008 -43.6893 -43.6013 -43.5590
     6.1707   7.6145   7.6324   8.3108   8.3819   8.4108   8.7003   9.1857
     9.2009   9.2596   9.4476  13.9792

          k = 0.0000 0.3464 0.1149 (  1413 PWs)   bands (ev):

   -77.6274 -77.6238 -43.7367 -43.7300 -43.7001 -43.6905 -43.5969 -43.5625
     6.3241   7.4761   7.7488   8.1205   8.4686   8.6431   8.7329   9.0575
     9.2214   9.2990   9.4172  11.9432

          k = 0.0000 0.3464 0.2299 (  1412 PWs)   bands (ev):

   -77.6262 -77.6249 -43.7353 -43.7328 -43.6974 -43.6935 -43.5856 -43.5725
     6.7087   7.1502   7.9107   8.0324   8.6273   8.8260   8.8444   8.9098
     9.2606   9.2975   9.5077  10.3503

          k = 0.0000 0.4619 0.0000 (  1424 PWs)   bands (ev):

   -77.6252 -77.6220 -43.7566 -43.7482 -43.7067 -43.6939 -43.5922 -43.5634
     7.0178   7.3701   7.4477   8.2474   8.3194   8.6608   9.0256   9.1875
     9.4989   9.5441  10.2271  14.3980

          k = 0.0000 0.4619 0.1149 (  1418 PWs)   bands (ev):

   -77.6248 -77.6223 -43.7561 -43.7497 -43.7053 -43.6949 -43.5889 -43.5654
     6.9511   7.3503   7.6229   7.9768   8.3916   8.9651   9.0873   9.2687
     9.5065   9.5479  10.1362  13.0962

          k = 0.0000 0.4619 0.2299 (  1417 PWs)   bands (ev):

   -77.6240 -77.6230 -43.7550 -43.7524 -43.7021 -43.6981 -43.5806 -43.5721
     6.9813   7.1678   7.8013   7.8690   8.5884   8.8512   9.3204   9.5245
     9.5423   9.7017  10.2174  11.4173

          k = 0.0000-0.5774 0.0000 (  1412 PWs)   bands (ev):

   -77.6237 -77.6215 -43.7638 -43.7556 -43.7086 -43.6949 -43.5876 -43.5657
     7.2404   7.2911   7.3382   8.1966   8.2859   9.0075   9.1067   9.1871
     9.6123   9.6641  11.4530  12.6003

          k = 0.0000-0.5774 0.1149 (  1420 PWs)   bands (ev):

   -77.6237 -77.6218 -43.7637 -43.7570 -43.7073 -43.6963 -43.5851 -43.5679
     7.0257   7.3203   7.6036   7.9257   8.3624   9.0886   9.0953   9.5223
     9.6190   9.6598  11.3974  12.5119

          k = 0.0000-0.5774 0.2299 (  1418 PWs)   bands (ev):

   -77.6231 -77.6223 -43.7625 -43.7596 -43.7036 -43.6997 -43.5789 -43.5722
     6.9968   7.1594   7.7840   7.7857   8.5706   8.8465   9.4472   9.6333
     9.6484   9.8178  11.5510  12.1462

          k = 0.1000 0.1732 0.0000 (  1418 PWs)   bands (ev):

   -77.6322 -77.6258 -43.7065 -43.7010 -43.6915 -43.6843 -43.6119 -43.5554
     4.8417   7.5929   8.1945   8.2461   8.4751   8.4783   8.6798   8.7946
     8.8197   8.9977   9.1577  11.9879

          k = 0.1000 0.1732 0.1149 (  1411 PWs)   bands (ev):

   -77.6315 -77.6263 -43.7057 -43.7012 -43.6908 -43.6850 -43.6064 -43.5608
     5.0822   7.4239   8.1073   8.2465   8.4740   8.5183   8.6199   8.7819
     8.8782   9.0280   9.1510  10.7001

          k = 0.1000 0.1732 0.2299 (  1411 PWs)   bands (ev):

   -77.6299 -77.6279 -43.7043 -43.7025 -43.6894 -43.6873 -43.5920 -43.5746
     5.7634   6.7021   8.1327   8.2285   8.4528   8.5058   8.6119   8.6927
     8.9988   9.1006   9.2080   9.6626

          k = 0.1000 0.2887 0.0000 (  1416 PWs)   bands (ev):

   -77.6291 -77.6240 -43.7265 -43.7207 -43.6995 -43.6901 -43.6043 -43.5577
     5.7843   7.7714   7.8101   8.1652   8.3209   8.4609   8.5618   9.0334
     9.1552   9.1687   9.3761  13.3918

          k = 0.1000 0.2887 0.1149 (  1413 PWs)   bands (ev):

   -77.6286 -77.6244 -43.7260 -43.7212 -43.6985 -43.6912 -43.5997 -43.5620
     5.9829   7.6039   7.8811   8.1511   8.3691   8.4935   8.5502   8.9692
     9.1648   9.2102   9.3801  11.5839

          k = 0.1000 0.2887 0.2299 (  1405 PWs)   bands (ev):

   -77.6272 -77.6256 -43.7248 -43.7230 -43.6964 -43.6936 -43.5872 -43.5729
     6.5124   7.1486   8.0082   8.1219   8.4263   8.4938   8.6328   8.8070
     9.2821   9.3361   9.4160  10.1452

          k = 0.1000 0.4041 0.0000 (  1422 PWs)   bands (ev):

   -77.6260 -77.6225 -43.7467 -43.7399 -43.7075 -43.6961 -43.5956 -43.5620
     6.8405   7.4808   7.6308   8.2149   8.3091   8.4033   8.7635   9.1501
     9.3189   9.5264   9.9777  14.8285

          k = 0.1000 0.4041 0.1149 (  1413 PWs)   bands (ev):

   -77.6255 -77.6227 -43.7465 -43.7409 -43.7063 -43.6970 -43.5917 -43.5643
     6.8816   7.4547   7.7133   8.0354   8.3964   8.6503   8.7882   9.0440
     9.3529   9.5754   9.9510  12.7612

          k = 0.1000 0.4041 0.2299 (  1414 PWs)   bands (ev):

   -77.6247 -77.6235 -43.7455 -43.7435 -43.7037 -43.7000 -43.5822 -43.5722
     7.0241   7.2550   7.8835   7.9926   8.5170   8.7448   8.9059   8.9415
     9.5375   9.6759  10.0467  11.0526

          k = 0.1000 0.5196 0.0000 (  1426 PWs)   bands (ev):

   -77.6241 -77.6216 -43.7601 -43.7519 -43.7121 -43.6999 -43.5879 -43.5662
     7.3135   7.3401   7.4708   8.1867   8.2708   8.7399   8.9646   9.1452
     9.5665   9.7007  11.1517  13.5336

          k = 0.1000 0.5196 0.1149 (  1425 PWs)   bands (ev):

   -77.6238 -77.6218 -43.7599 -43.7530 -43.7111 -43.7011 -43.5851 -43.5677
     7.1128   7.4308   7.6707   7.9420   8.2975   8.9912   9.0273   9.1160
     9.5727   9.7588  11.1748  13.2936

          k = 0.1000 0.5196 0.2299 (  1417 PWs)   bands (ev):

   -77.6231 -77.6223 -43.7582 -43.7557 -43.7080 -43.7041 -43.5786 -43.5723
     7.0948   7.2610   7.8289   7.8802   8.4576   8.7542   9.2403   9.3134
     9.6437   9.8103  11.4870  12.3647

          k = 0.2000 0.3464 0.0000 (  1424 PWs)   bands (ev):

   -77.6264 -77.6226 -43.7382 -43.7373 -43.7085 -43.7008 -43.5967 -43.5615
     6.7830   7.5578   7.9183   7.9936   8.1567   8.4679   8.5578   9.1083
     9.1899   9.5686   9.9666  14.8266

          k = 0.2000 0.3464 0.1149 (  1423 PWs)   bands (ev):

   -77.6261 -77.6229 -43.7383 -43.7375 -43.7081 -43.7018 -43.5926 -43.5645
     6.8794   7.5037   7.9331   8.0534   8.2756   8.4299   8.5503   8.9885
     9.2762   9.6107   9.9741  12.6492

          k = 0.2000 0.3464 0.2299 (  1412 PWs)   bands (ev):

   -77.6250 -77.6237 -43.7384 -43.7382 -43.7065 -43.7040 -43.5826 -43.5722
     7.1065   7.3446   8.0156   8.1025   8.4160   8.4205   8.5863   8.7675
     9.5639   9.6769  10.0969  10.9920

          k = 0.2000 0.4619 0.0000 (  1429 PWs)   bands (ev):

   -77.6240 -77.6218 -43.7506 -43.7452 -43.7192 -43.7093 -43.5881 -43.5663
     7.4366   7.5397   7.7568   8.0991   8.1856   8.3071   8.7650   9.0716
     9.4111   9.7615  11.0039  15.2702

          k = 0.2000 0.4619 0.1149 (  1424 PWs)   bands (ev):

   -77.6238 -77.6219 -43.7503 -43.7459 -43.7185 -43.7107 -43.5849 -43.5676
     7.3454   7.5881   7.7975   8.0253   8.2411   8.4604   8.7785   8.9705
     9.4687   9.7965  11.0878  14.0798

          k = 0.2000 0.4619 0.2299 (  1421 PWs)   bands (ev):

   -77.6231 -77.6224 -43.7492 -43.7476 -43.7166 -43.7134 -43.5785 -43.5719
     7.3355   7.4495   7.9403   8.0838   8.2753   8.5116   8.8169   8.8392
     9.6661   9.8143  11.4805  12.4872

          k = 0.2000 0.5774 0.0000 (  1426 PWs)   bands (ev):

   -77.6230 -77.6214 -43.7554 -43.7465 -43.7239 -43.7126 -43.5831 -43.5699
     7.3992   7.6603   7.6867   8.1482   8.1724   8.4274   8.8679   9.0582
     9.5615   9.7578  12.5253  13.1999

          k = 0.2000 0.5774 0.1149 (  1421 PWs)   bands (ev):

   -77.6227 -77.6215 -43.7549 -43.7482 -43.7232 -43.7138 -43.5807 -43.5700
     7.3296   7.6953   7.8424   7.9309   8.1413   8.6190   8.9045   8.9730
     9.5942   9.7955  12.6854  13.2512

          k = 0.2000 0.5774 0.2299 (  1425 PWs)   bands (ev):

   -77.6224 -77.6219 -43.7533 -43.7507 -43.7208 -43.7172 -43.5766 -43.5722
     7.3410   7.5081   7.9309   8.0568   8.1766   8.5095   8.9596   8.9713
     9.7054   9.8128  13.1028  13.3450

          k = 0.3000 0.5196 0.0000 (  1424 PWs)   bands (ev):

   -77.6224 -77.6215 -43.7478 -43.7411 -43.7320 -43.7238 -43.5803 -43.5719
     7.4527   7.8645   8.0042   8.0512   8.0773   8.1683   8.7701   9.0132
     9.5660   9.7392  12.6782  14.9187

          k = 0.3000 0.5196 0.1149 (  1430 PWs)   bands (ev):

   -77.6223 -77.6216 -43.7473 -43.7423 -43.7320 -43.7249 -43.5785 -43.5720
     7.5006   7.7854   7.9493   7.9631   8.2078   8.2814   8.7584   8.9156
     9.6157   9.7701  12.8526  14.9223

          k = 0.3000 0.5196 0.2299 (  1434 PWs)   bands (ev):

   -77.6221 -77.6220 -43.7454 -43.7440 -43.7311 -43.7279 -43.5756 -43.5726
     7.5898   7.6640   7.9446   7.9627   8.2734   8.3486   8.7423   8.7715
     9.7309   9.7977  13.3948  14.2979

 ------ SPIN DOWN ----------


          k = 0.0000 0.0000 0.0000 (  1377 PWs)   bands (ev):

   -74.2588 -74.2510 -40.3668 -40.3668 -40.3573 -40.3573 -40.3567 -40.2792
     4.3243   8.1230  10.3831  10.4574  11.1322  11.1322  11.2999  11.2999
    12.3608  12.3608  12.9547  12.9547

          k = 0.0000 0.0000 0.1149 (  1395 PWs)   bands (ev):

   -74.2583 -74.2519 -40.3662 -40.3662 -40.3585 -40.3585 -40.3493 -40.2877
     4.5819   7.6248  10.1699  10.3236  11.1292  11.1292  11.2675  11.2675
    12.4382  12.4382  12.9165  12.9165

          k = 0.0000 0.0000 0.2299 (  1401 PWs)   bands (ev):

   -74.2565 -74.2540 -40.3639 -40.3639 -40.3611 -40.3611 -40.3306 -40.3073
     5.3275   6.4526  10.0592  10.1799  11.1438  11.1438  11.1981  11.1981
    12.6169  12.6169  12.7985  12.7985

          k = 0.0000 0.1155 0.0000 (  1391 PWs)   bands (ev):

   -74.2580 -74.2502 -40.3755 -40.3693 -40.3669 -40.3591 -40.3540 -40.2807
     4.5874   8.3281  10.3439  10.4227  11.0501  11.2185  11.2501  11.4092
    12.2454  12.2882  12.9762  13.3334

          k = 0.0000 0.1155 0.1149 (  1401 PWs)   bands (ev):

   -74.2574 -74.2511 -40.3752 -40.3685 -40.3680 -40.3605 -40.3468 -40.2880
     4.8425   7.8463  10.1124  10.3695  11.0304  11.1967  11.2446  11.3759
    12.3395  12.3760  12.9277  13.0674

          k = 0.0000 0.1155 0.2299 (  1413 PWs)   bands (ev):

   -74.2556 -74.2532 -40.3736 -40.3708 -40.3663 -40.3634 -40.3283 -40.3062
     5.5802   6.6949  10.0629  10.2180  11.0369  11.1112  11.2552  11.3069
    12.5656  12.5773  12.7855  12.8156

          k = 0.0000 0.2309 0.0000 (  1401 PWs)   bands (ev):

   -74.2551 -74.2484 -40.3988 -40.3900 -40.3760 -40.3643 -40.3464 -40.2827
     5.3543   8.8525  10.1475  10.4286  10.8683  11.1466  11.5761  11.7065
    11.9910  12.1221  13.0099  14.2573

          k = 0.0000 0.2309 0.1149 (  1417 PWs)   bands (ev):

   -74.2546 -74.2492 -40.3987 -40.3914 -40.3753 -40.3656 -40.3401 -40.2889
     5.5993   8.4420  10.0000  10.4340  10.8103  11.0826  11.5598  11.6696
    12.1284  12.2373  12.9387  13.4008

          k = 0.0000 0.2309 0.2299 (  1412 PWs)   bands (ev):

   -74.2529 -74.2508 -40.3971 -40.3941 -40.3725 -40.3688 -40.3232 -40.3039
     6.3102   7.3743  10.0699  10.3086  10.7837  10.9281  11.5579  11.6030
    12.4541  12.4846  12.7454  12.8553

          k = 0.0000 0.3464 0.0000 (  1414 PWs)   bands (ev):

   -74.2514 -74.2463 -40.4270 -40.4175 -40.3839 -40.3706 -40.3363 -40.2867
     6.5394   9.3499  10.0206  10.3090  10.6644  11.4593  11.6828  11.9432
    12.0193  12.1014  13.0275  15.2192

          k = 0.0000 0.3464 0.1149 (  1413 PWs)   bands (ev):

   -74.2509 -74.2468 -40.4268 -40.4190 -40.3830 -40.3720 -40.3308 -40.2906
     6.7612   9.1147   9.9052  10.4102  10.5874  11.2114  11.9151  11.9502
    12.0549  12.1669  12.9310  13.8193

          k = 0.0000 0.3464 0.2299 (  1412 PWs)   bands (ev):

   -74.2496 -74.2480 -40.4256 -40.4226 -40.3798 -40.3754 -40.3171 -40.3019
     7.3898   8.2945  10.0426  10.3355  10.6175  10.8981  11.9370  11.9992
    12.3642  12.4047  12.6898  12.9239

          k = 0.0000 0.4619 0.0000 (  1424 PWs)   bands (ev):

   -74.2483 -74.2446 -40.4498 -40.4401 -40.3906 -40.3759 -40.3256 -40.2919
     7.9001   9.4065   9.9893  10.1474  10.7154  11.4202  11.8111  12.1071
    12.4087  12.4599  13.0309  15.1711

          k = 0.0000 0.4619 0.1149 (  1418 PWs)   bands (ev):

   -74.2478 -74.2450 -40.4496 -40.4419 -40.3891 -40.3771 -40.3215 -40.2941
     8.0549   9.3404   9.8735  10.2798  10.6831  11.4438  11.8991  12.1231
    12.4250  12.4398  12.9083  14.2058

          k = 0.0000 0.4619 0.2299 (  1417 PWs)   bands (ev):

   -74.2469 -74.2458 -40.4487 -40.4456 -40.3854 -40.3808 -40.3115 -40.3014
     8.4649   8.9757   9.9774  10.2057  10.8728  11.2483  12.1299  12.3556
    12.3940  12.4821  12.6442  13.0706

          k = 0.0000-0.5774 0.0000 (  1412 PWs)   bands (ev):

   -74.2466 -74.2441 -40.4584 -40.4486 -40.3928 -40.3773 -40.3202 -40.2948
     8.7307   9.2457   9.9935  10.0292  10.7787  11.3133  11.7628  12.5562
    12.6188  12.8562  13.0305  13.9507

          k = 0.0000-0.5774 0.1149 (  1420 PWs)   bands (ev):

   -74.2466 -74.2443 -40.4585 -40.4505 -40.3914 -40.3788 -40.3169 -40.2968
     8.7851   9.2333   9.9543  10.0979  10.7763  11.5949  11.8627  12.5580
    12.6032  12.6144  12.8877  13.7574

          k = 0.0000-0.5774 0.2299 (  1418 PWs)   bands (ev):

   -74.2459 -74.2450 -40.4574 -40.4541 -40.3873 -40.3827 -40.3092 -40.3016
     8.9314   9.1174   9.9851  10.1369  11.0657  11.7127  12.1385  12.4791
    12.4916  12.6044  12.6175  13.1903

          k = 0.1000 0.1732 0.0000 (  1418 PWs)   bands (ev):

   -74.2563 -74.2491 -40.3905 -40.3844 -40.3730 -40.3647 -40.3491 -40.2825
     5.1026   8.6976  10.1972  10.4415  10.9636  11.0688  11.4826  11.6290
    12.0253  12.2207  12.9827  13.9775

          k = 0.1000 0.1732 0.1149 (  1411 PWs)   bands (ev):

   -74.2555 -74.2497 -40.3902 -40.3849 -40.3724 -40.3655 -40.3421 -40.2885
     5.3518   8.2607  10.0325  10.4259  10.8805  11.0680  11.4670  11.5895
    12.1781  12.2947  12.9194  13.3143

          k = 0.1000 0.1732 0.2299 (  1411 PWs)   bands (ev):

   -74.2538 -74.2515 -40.3890 -40.3867 -40.3707 -40.3681 -40.3247 -40.3045
     6.0736   7.1577  10.0709  10.2866  10.8461  10.9599  11.4708  11.5200
    12.4948  12.5039  12.7435  12.8561

          k = 0.1000 0.2887 0.0000 (  1416 PWs)   bands (ev):

   -74.2528 -74.2470 -40.4141 -40.4076 -40.3823 -40.3716 -40.3400 -40.2852
     6.0851   9.2519  10.0681  10.3059  10.8097  11.1368  11.7471  11.8741
    12.0200  12.0484  12.9811  15.0707

          k = 0.1000 0.2887 0.1149 (  1413 PWs)   bands (ev):

   -74.2522 -74.2475 -40.4141 -40.4086 -40.3813 -40.3728 -40.3341 -40.2900
     6.3193   8.9370   9.9428  10.3662  10.7392  11.0034  11.7957  11.9099
    12.0441  12.1909  12.8972  13.7040

          k = 0.1000 0.2887 0.2299 (  1405 PWs)   bands (ev):

   -74.2507 -74.2489 -40.4132 -40.4110 -40.3789 -40.3757 -40.3190 -40.3024
     6.9921   7.9818  10.0790  10.3844  10.5763  10.7914  11.8138  11.8886
    12.4066  12.4237  12.6836  12.9328

          k = 0.1000 0.4041 0.0000 (  1422 PWs)   bands (ev):

   -74.2492 -74.2452 -40.4383 -40.4303 -40.3916 -40.3785 -40.3295 -40.2901
     7.3919   9.5324  10.0283  10.1556  10.7214  11.4973  11.5739  11.8347
    12.2516  12.4834  12.9746  15.6120

          k = 0.1000 0.4041 0.1149 (  1413 PWs)   bands (ev):

   -74.2488 -74.2454 -40.4383 -40.4317 -40.3903 -40.3797 -40.3246 -40.2927
     7.5850   9.4350   9.8817  10.2977  10.6275  11.2207  11.8376  11.8939
    12.3438  12.4324  12.8867  14.2643

          k = 0.1000 0.4041 0.2299 (  1414 PWs)   bands (ev):

   -74.2478 -74.2464 -40.4374 -40.4350 -40.3874 -40.3832 -40.3131 -40.3014
     8.1212   8.8500  10.0301  10.3149  10.5846  10.8822  11.9900  12.2236
    12.3473  12.5235  12.7289  13.1529

          k = 0.1000 0.5196 0.0000 (  1426 PWs)   bands (ev):

   -74.2469 -74.2441 -40.4539 -40.4442 -40.3971 -40.3829 -40.3205 -40.2951
     8.6066   9.4227  10.0038  10.0478  10.8183  11.3347  11.6952  12.1590
    12.4204  12.9676  13.0154  14.6784

          k = 0.1000 0.5196 0.1149 (  1425 PWs)   bands (ev):

   -74.2466 -74.2444 -40.4538 -40.4458 -40.3960 -40.3844 -40.3169 -40.2967
     8.7047   9.4089   9.9065  10.2061  10.7481  11.3754  11.8067  12.1777
    12.4477  12.7219  13.0681  14.3497

          k = 0.1000 0.5196 0.2299 (  1417 PWs)   bands (ev):

   -74.2459 -74.2450 -40.4525 -40.4494 -40.3925 -40.3880 -40.3089 -40.3014
     8.9522   9.2365  10.0068  10.2217  10.8552  11.2294  12.0665  12.3141
    12.3283  12.5150  13.1333  13.6185

          k = 0.2000 0.3464 0.0000 (  1424 PWs)   bands (ev):

   -74.2497 -74.2453 -40.4280 -40.4274 -40.3929 -40.3839 -40.3308 -40.2895
     7.2088   9.6652  10.0606  10.0666  10.8441  11.2257  11.5004  11.8615
    12.1917  12.5198  12.9150  15.7240

          k = 0.2000 0.3464 0.1149 (  1423 PWs)   bands (ev):

   -74.2493 -74.2457 -40.4285 -40.4278 -40.3925 -40.3852 -40.3257 -40.2926
     7.4154   9.5611   9.8994  10.1314  10.8530  10.9090  11.7532  11.8442
    12.3592  12.4358  12.8614  14.3130

          k = 0.2000 0.3464 0.2299 (  1412 PWs)   bands (ev):

   -74.2481 -74.2467 -40.4292 -40.4288 -40.3908 -40.3879 -40.3135 -40.3013
     7.9977   8.8220  10.1025  10.3141  10.5152  10.6431  11.8885  12.1848
    12.3581  12.5269  12.7897  13.2291

          k = 0.2000 0.4619 0.0000 (  1429 PWs)   bands (ev):

   -74.2468 -74.2442 -40.4427 -40.4363 -40.4054 -40.3941 -40.3207 -40.2951
     8.4681   9.7092   9.9265  10.1493  10.9489  11.3436  11.5883  11.6037
    12.2837  12.8629  13.1572  16.1117

          k = 0.2000 0.4619 0.1149 (  1424 PWs)   bands (ev):

   -74.2466 -74.2444 -40.4426 -40.4374 -40.4047 -40.3957 -40.3167 -40.2964
     8.6169   9.7737   9.8757  10.1648  10.8150  11.1041  11.5894  11.8655
    12.4088  12.6191  13.2647  15.2267

          k = 0.2000 0.4619 0.2299 (  1421 PWs)   bands (ev):

   -74.2459 -74.2451 -40.4417 -40.4399 -40.4027 -40.3991 -40.3086 -40.3009
     9.0116   9.4914  10.0634  10.2805  10.5489  10.7318  11.7962  12.1790
    12.2839  12.5062  13.4703  14.0739

          k = 0.2000 0.5774 0.0000 (  1426 PWs)   bands (ev):

   -74.2457 -74.2438 -40.4483 -40.4381 -40.4111 -40.3979 -40.3148 -40.2994
     9.1894   9.6039   9.8320  10.2087  11.0164  11.2991  11.4653  12.0109
    12.1018  12.8435  13.9626  14.6381

          k = 0.2000 0.5774 0.1149 (  1421 PWs)   bands (ev):

   -74.2453 -74.2440 -40.4479 -40.4401 -40.4103 -40.3995 -40.3118 -40.2993
     9.2726   9.6381   9.8763  10.2763  10.8198  11.1285  11.6058  12.0783
    12.2279  12.6139  14.0914  14.6296

          k = 0.2000 0.5774 0.2299 (  1425 PWs)   bands (ev):

   -74.2450 -74.2445 -40.4465 -40.4435 -40.4077 -40.4035 -40.3063 -40.3014
     9.4580   9.6098  10.0866  10.3818  10.5653  10.8168  11.8393  12.1701
    12.2480  12.3562  14.3481  14.5639

          k = 0.3000 0.5196 0.0000 (  1424 PWs)   bands (ev):

   -74.2449 -74.2439 -40.4393 -40.4317 -40.4206 -40.4111 -40.3115 -40.3018
     9.3545   9.7303   9.8060  10.3221  11.2175  11.2716  11.3424  11.7022
    12.0403  12.7822  14.2258  15.9099

          k = 0.3000 0.5196 0.1149 (  1430 PWs)   bands (ev):

   -74.2449 -74.2441 -40.4387 -40.4331 -40.4209 -40.4125 -40.3092 -40.3015
     9.4712   9.8177   9.8680  10.2861  10.9680  11.0056  11.3961  11.9343
    12.1921  12.5430  14.3901  15.8806

          k = 0.3000 0.5196 0.2299 (  1434 PWs)   bands (ev):

   -74.2446 -74.2445 -40.4370 -40.4355 -40.4199 -40.4162 -40.3051 -40.3018
     9.7554   9.9453  10.0681  10.2825  10.4772  10.6020  11.6600  12.0794
    12.2123  12.3126  14.8014  15.4350

     the Fermi energy is    10.9667 ev

!    total energy              =    -658.41262149 Ry
     Harris-Foulkes estimate   =    -658.41262148 Ry
     estimated scf accuracy    <          2.6E-09 Ry

     total all-electron energy =     -5091.005692 Ry

     The total energy is the sum of the following terms:

     one-electron contribution =    -296.53722417 Ry
     hartree contribution      =     160.58208483 Ry
     xc contribution           =     -69.41154688 Ry
     ewald contribution        =    -300.76700870 Ry
     one-center paw contrib.   =    -152.27834012 Ry
     smearing contrib. (-TS)   =      -0.00058644 Ry

     total magnetization       =     5.75 Bohr mag/cell
     absolute magnetization    =     6.08 Bohr mag/cell

     convergence has been achieved in  25 iterations

     Forces acting on atoms (Ry/au):


     negative rho (up, down):  0.000E+00 9.580E-04
     atom    1 type  1   force =     0.00000000    0.00000000    0.00000000
     atom    2 type  1   force =     0.00000000    0.00000000    0.00000000

     Total force =     0.000000     Total SCF correction =     0.000000


     entering subroutine stress ...


     negative rho (up, down):  0.000E+00 9.580E-04
          total   stress  (Ry/bohr**3)                   (kbar)     P= -293.78
  -0.00210690   0.00000000   0.00000000       -309.94      0.00      0.00
   0.00000000  -0.00210690   0.00000000          0.00   -309.94      0.00
   0.00000000   0.00000000  -0.00177740          0.00      0.00   -261.46


     Writing output data file Fe_hcp.save

     init_run     :      5.35s CPU      5.41s WALL (       1 calls)
     electrons    :    234.65s CPU    226.54s WALL (       1 calls)
     forces       :      0.93s CPU      0.74s WALL (       1 calls)
     stress       :      2.43s CPU      2.43s WALL (       1 calls)

     Called by init_run:
     wfcinit      :      3.58s CPU      3.53s WALL (       1 calls)
     potinit      :      1.11s CPU      1.19s WALL (       1 calls)

     Called by electrons:
     c_bands      :    175.44s CPU    165.54s WALL (      25 calls)
     sum_band     :     30.56s CPU     30.50s WALL (      25 calls)
     v_of_rho     :      1.60s CPU      1.71s WALL (      26 calls)
     newd         :      1.99s CPU      2.14s WALL (      26 calls)
     mix_rho      :      0.28s CPU      0.38s WALL (      25 calls)

     Called by c_bands:
     init_us_2    :      2.56s CPU      2.64s WALL (    4452 calls)
     cegterg      :    168.07s CPU    157.93s WALL (    2100 calls)

     Called by *egterg:
     h_psi        :    134.20s CPU    132.91s WALL (    6657 calls)
     s_psi        :      6.16s CPU      3.66s WALL (    6657 calls)
     g_psi        :      0.81s CPU      0.84s WALL (    4473 calls)
     cdiaghg      :      6.38s CPU      6.56s WALL (    6573 calls)

     Called by h_psi:
     add_vuspsi   :      7.07s CPU      4.21s WALL (    6657 calls)

     General routines
     calbec       :      9.70s CPU      5.66s WALL (    8925 calls)
     fft          :      0.90s CPU      0.93s WALL (     840 calls)
     ffts         :      0.07s CPU      0.08s WALL (     102 calls)
     fftw         :    130.35s CPU    135.05s WALL (  247612 calls)
     interpolate  :      0.21s CPU      0.23s WALL (     102 calls)
     davcio       :      0.00s CPU      0.04s WALL (      84 calls)


     PAW routines
     PAW_pot      :     25.79s CPU     27.34s WALL (      26 calls)
     PAW_symme    :      0.04s CPU      0.04s WALL (      51 calls)

     PWSCF        :  4m 3.85s CPU     3m55.78s WALL


   This run was terminated on:  22:15: 1  11May2015            

=------------------------------------------------------------------------------=
   JOB DONE.
=------------------------------------------------------------------------------=
