
     Program PWSCF v.5.1.2 starts on 11May2015 at 22: 8:19 

     This program is part of the open-source Quantum ESPRESSO suite
     for quantum simulation of materials; please cite
         "P. Giannozzi et al., J. Phys.:Condens. Matter 21 395502 (2009);
          URL http://www.quantum-espresso.org", 
     in publications or presentations arising from this work. More details at
     http://www.quantum-espresso.org/quote

     Serial version
     Reading input from Fe_HCP_5.4_173_10_5.pw.in

     Current dimensions of program PWSCF are:
     Max number of different atomic species (ntypx) = 10
     Max number of k-points (npk) =  40000
     Max angular momentum in pseudopotentials (lmaxx) =  3
               file Fe.pbe-spn-kjpaw_psl.0.2.1.UPF: wavefunction(s)  3D renormalized

     G-vector sticks info
     --------------------
     sticks:   dense  smooth     PW     G-vecs:    dense   smooth      PW
     Sum         499     397    121                15713    11191    1919

     Generating pointlists ...
     new r_m :   0.4125 (alat units)  2.2275 (a.u.) for type    1


     bravais-lattice index     =            4
     lattice parameter (alat)  =       5.4000  a.u.
     unit-cell volume          =     235.9163 (a.u.)^3
     number of atoms/cell      =            2
     number of atomic types    =            1
     number of electrons       =        32.00
     number of Kohn-Sham states=           20
     kinetic-energy cutoff     =      50.0000  Ry
     charge density cutoff     =     250.0000  Ry
     convergence threshold     =      1.0E-08
     mixing beta               =       0.7000
     number of iterations used =            8  plain     mixing
     Exchange-correlation      =  SLA  PW   PBX  PBC ( 1  4  3  4 0 0)

     celldm(1)=   5.400000  celldm(2)=   0.000000  celldm(3)=   1.730000
     celldm(4)=   0.000000  celldm(5)=   0.000000  celldm(6)=   0.000000

     crystal axes: (cart. coord. in units of alat)
               a(1) = (   1.000000   0.000000   0.000000 )  
               a(2) = (  -0.500000   0.866025   0.000000 )  
               a(3) = (   0.000000   0.000000   1.730000 )  

     reciprocal axes: (cart. coord. in units 2 pi/alat)
               b(1) = (  1.000000  0.577350 -0.000000 )  
               b(2) = (  0.000000  1.154701  0.000000 )  
               b(3) = (  0.000000 -0.000000  0.578035 )  


     PseudoPot. # 1 for Fe read from file:
     ./Fe.pbe-spn-kjpaw_psl.0.2.1.UPF
     MD5 check sum: a0a08122d52b112de96d1da1d7dd020f
     Pseudo is Projector augmented-wave + core cor, Zval = 16.0
     Generated using "atomic" code by A. Dal Corso  v.5.0.2 svn rev. 9415
     Shape of augmentation charge: PSQ
     Using radial grid of 1191 points,  6 beta functions with: 
                l(1) =   0
                l(2) =   0
                l(3) =   1
                l(4) =   1
                l(5) =   2
                l(6) =   2
     Q(r) pseudized with 0 coefficients 


     atomic species   valence    mass     pseudopotential
        Fe            16.00    55.85000     Fe( 1.00)

     Starting magnetic structure 
     atomic species   magnetization
        Fe           0.700

     24 Sym. Ops., with inversion, found (12 have fractional translation)



   Cartesian axes

     site n.     atom                  positions (alat units)
         1           Fe  tau(   1) = (  -0.0000000   0.5773503   0.4325000  )
         2           Fe  tau(   2) = (   0.5000000   0.2886751   1.2975000  )

     number of k points=    84  Marzari-Vanderbilt smearing, width (Ry)=  0.0250
                       cart. coord. in units 2pi/alat
        k(    1) = (   0.0000000   0.0000000   0.0000000), wk =   0.0020000
        k(    2) = (   0.0000000   0.0000000   0.1156069), wk =   0.0040000
        k(    3) = (   0.0000000   0.0000000   0.2312139), wk =   0.0040000
        k(    4) = (   0.0000000   0.1154701   0.0000000), wk =   0.0120000
        k(    5) = (   0.0000000   0.1154701   0.1156069), wk =   0.0240000
        k(    6) = (   0.0000000   0.1154701   0.2312139), wk =   0.0240000
        k(    7) = (   0.0000000   0.2309401   0.0000000), wk =   0.0120000
        k(    8) = (   0.0000000   0.2309401   0.1156069), wk =   0.0240000
        k(    9) = (   0.0000000   0.2309401   0.2312139), wk =   0.0240000
        k(   10) = (   0.0000000   0.3464102   0.0000000), wk =   0.0120000
        k(   11) = (   0.0000000   0.3464102   0.1156069), wk =   0.0240000
        k(   12) = (   0.0000000   0.3464102   0.2312139), wk =   0.0240000
        k(   13) = (   0.0000000   0.4618802   0.0000000), wk =   0.0120000
        k(   14) = (   0.0000000   0.4618802   0.1156069), wk =   0.0240000
        k(   15) = (   0.0000000   0.4618802   0.2312139), wk =   0.0240000
        k(   16) = (   0.0000000  -0.5773503   0.0000000), wk =   0.0060000
        k(   17) = (   0.0000000  -0.5773503   0.1156069), wk =   0.0120000
        k(   18) = (   0.0000000  -0.5773503   0.2312139), wk =   0.0120000
        k(   19) = (   0.1000000   0.1732051   0.0000000), wk =   0.0120000
        k(   20) = (   0.1000000   0.1732051   0.1156069), wk =   0.0240000
        k(   21) = (   0.1000000   0.1732051   0.2312139), wk =   0.0240000
        k(   22) = (   0.1000000   0.2886751   0.0000000), wk =   0.0240000
        k(   23) = (   0.1000000   0.2886751   0.1156069), wk =   0.0480000
        k(   24) = (   0.1000000   0.2886751   0.2312139), wk =   0.0480000
        k(   25) = (   0.1000000   0.4041452   0.0000000), wk =   0.0240000
        k(   26) = (   0.1000000   0.4041452   0.1156069), wk =   0.0480000
        k(   27) = (   0.1000000   0.4041452   0.2312139), wk =   0.0480000
        k(   28) = (   0.1000000   0.5196152   0.0000000), wk =   0.0240000
        k(   29) = (   0.1000000   0.5196152   0.1156069), wk =   0.0480000
        k(   30) = (   0.1000000   0.5196152   0.2312139), wk =   0.0480000
        k(   31) = (   0.2000000   0.3464102   0.0000000), wk =   0.0120000
        k(   32) = (   0.2000000   0.3464102   0.1156069), wk =   0.0240000
        k(   33) = (   0.2000000   0.3464102   0.2312139), wk =   0.0240000
        k(   34) = (   0.2000000   0.4618802   0.0000000), wk =   0.0240000
        k(   35) = (   0.2000000   0.4618802   0.1156069), wk =   0.0480000
        k(   36) = (   0.2000000   0.4618802   0.2312139), wk =   0.0480000
        k(   37) = (   0.2000000   0.5773503   0.0000000), wk =   0.0120000
        k(   38) = (   0.2000000   0.5773503   0.1156069), wk =   0.0240000
        k(   39) = (   0.2000000   0.5773503   0.2312139), wk =   0.0240000
        k(   40) = (   0.3000000   0.5196152   0.0000000), wk =   0.0120000
        k(   41) = (   0.3000000   0.5196152   0.1156069), wk =   0.0240000
        k(   42) = (   0.3000000   0.5196152   0.2312139), wk =   0.0240000
        k(   43) = (   0.0000000   0.0000000   0.0000000), wk =   0.0020000
        k(   44) = (   0.0000000   0.0000000   0.1156069), wk =   0.0040000
        k(   45) = (   0.0000000   0.0000000   0.2312139), wk =   0.0040000
        k(   46) = (   0.0000000   0.1154701   0.0000000), wk =   0.0120000
        k(   47) = (   0.0000000   0.1154701   0.1156069), wk =   0.0240000
        k(   48) = (   0.0000000   0.1154701   0.2312139), wk =   0.0240000
        k(   49) = (   0.0000000   0.2309401   0.0000000), wk =   0.0120000
        k(   50) = (   0.0000000   0.2309401   0.1156069), wk =   0.0240000
        k(   51) = (   0.0000000   0.2309401   0.2312139), wk =   0.0240000
        k(   52) = (   0.0000000   0.3464102   0.0000000), wk =   0.0120000
        k(   53) = (   0.0000000   0.3464102   0.1156069), wk =   0.0240000
        k(   54) = (   0.0000000   0.3464102   0.2312139), wk =   0.0240000
        k(   55) = (   0.0000000   0.4618802   0.0000000), wk =   0.0120000
        k(   56) = (   0.0000000   0.4618802   0.1156069), wk =   0.0240000
        k(   57) = (   0.0000000   0.4618802   0.2312139), wk =   0.0240000
        k(   58) = (   0.0000000  -0.5773503   0.0000000), wk =   0.0060000
        k(   59) = (   0.0000000  -0.5773503   0.1156069), wk =   0.0120000
        k(   60) = (   0.0000000  -0.5773503   0.2312139), wk =   0.0120000
        k(   61) = (   0.1000000   0.1732051   0.0000000), wk =   0.0120000
        k(   62) = (   0.1000000   0.1732051   0.1156069), wk =   0.0240000
        k(   63) = (   0.1000000   0.1732051   0.2312139), wk =   0.0240000
        k(   64) = (   0.1000000   0.2886751   0.0000000), wk =   0.0240000
        k(   65) = (   0.1000000   0.2886751   0.1156069), wk =   0.0480000
        k(   66) = (   0.1000000   0.2886751   0.2312139), wk =   0.0480000
        k(   67) = (   0.1000000   0.4041452   0.0000000), wk =   0.0240000
        k(   68) = (   0.1000000   0.4041452   0.1156069), wk =   0.0480000
        k(   69) = (   0.1000000   0.4041452   0.2312139), wk =   0.0480000
        k(   70) = (   0.1000000   0.5196152   0.0000000), wk =   0.0240000
        k(   71) = (   0.1000000   0.5196152   0.1156069), wk =   0.0480000
        k(   72) = (   0.1000000   0.5196152   0.2312139), wk =   0.0480000
        k(   73) = (   0.2000000   0.3464102   0.0000000), wk =   0.0120000
        k(   74) = (   0.2000000   0.3464102   0.1156069), wk =   0.0240000
        k(   75) = (   0.2000000   0.3464102   0.2312139), wk =   0.0240000
        k(   76) = (   0.2000000   0.4618802   0.0000000), wk =   0.0240000
        k(   77) = (   0.2000000   0.4618802   0.1156069), wk =   0.0480000
        k(   78) = (   0.2000000   0.4618802   0.2312139), wk =   0.0480000
        k(   79) = (   0.2000000   0.5773503   0.0000000), wk =   0.0120000
        k(   80) = (   0.2000000   0.5773503   0.1156069), wk =   0.0240000
        k(   81) = (   0.2000000   0.5773503   0.2312139), wk =   0.0240000
        k(   82) = (   0.3000000   0.5196152   0.0000000), wk =   0.0120000
        k(   83) = (   0.3000000   0.5196152   0.1156069), wk =   0.0240000
        k(   84) = (   0.3000000   0.5196152   0.2312139), wk =   0.0240000

     Dense  grid:    15713 G-vectors     FFT dimensions: (  27,  27,  48)

     Smooth grid:    11191 G-vectors     FFT dimensions: (  25,  25,  45)

     Largest allocated arrays     est. size (Mb)     dimensions
        Kohn-Sham Wavefunctions         0.43 Mb     (    1424,   20)
        NL pseudopotentials             0.78 Mb     (    1424,   36)
        Each V/rho on FFT grid          1.07 Mb     (   34992,   2)
        Each G-vector array             0.12 Mb     (   15713)
        G-vector shells                 0.01 Mb     (     824)
     Largest temporary arrays     est. size (Mb)     dimensions
        Auxiliary wavefunctions         1.74 Mb     (    1424,   80)
        Each subspace H/S matrix        0.10 Mb     (      80,   80)
        Each <psi_i|beta_j> matrix      0.01 Mb     (      36,   20)
        Arrays for rho mixing           4.27 Mb     (   34992,    8)

     Check: negative/imaginary core charge=   -0.000319    0.000000

     Initial potential from superposition of free atoms

     starting charge   31.99912, renormalised to   32.00000
     Starting wfc are   26 randomized atomic wfcs

     total cpu time spent up to now is        5.9 secs

     Self-consistent Calculation

     iteration #  1     ecut=    50.00 Ry     beta=0.70
     Davidson diagonalization with overlap
     ethr =  1.00E-02,  avg # of iterations =  2.0

     negative rho (up, down):  0.000E+00 1.069E-03

     Magnetic moment per site:
     atom:    1    charge:   14.6023    magn:    5.9385    constr:    0.0000
     atom:    2    charge:   14.6023    magn:    5.9385    constr:    0.0000

     total cpu time spent up to now is       14.5 secs

     total energy              =    -657.96920784 Ry
     Harris-Foulkes estimate   =    -656.24538255 Ry
     estimated scf accuracy    <       2.84256418 Ry

     total magnetization       =     8.00 Bohr mag/cell
     absolute magnetization    =     8.24 Bohr mag/cell

     iteration #  2     ecut=    50.00 Ry     beta=0.70
     Davidson diagonalization with overlap
     ethr =  8.88E-03,  avg # of iterations =  1.6

     negative rho (up, down):  0.000E+00 1.050E-03

     Magnetic moment per site:
     atom:    1    charge:   14.8265    magn:    4.0039    constr:    0.0000
     atom:    2    charge:   14.8265    magn:    4.0039    constr:    0.0000

     total cpu time spent up to now is       22.4 secs

     total energy              =    -658.15155780 Ry
     Harris-Foulkes estimate   =    -658.18172014 Ry
     estimated scf accuracy    <       0.82200279 Ry

     total magnetization       =     6.57 Bohr mag/cell
     absolute magnetization    =     6.86 Bohr mag/cell

     iteration #  3     ecut=    50.00 Ry     beta=0.70
     Davidson diagonalization with overlap
     ethr =  2.57E-03,  avg # of iterations =  3.1

     negative rho (up, down):  0.000E+00 1.230E-03

     Magnetic moment per site:
     atom:    1    charge:   14.7119    magn:    3.0498    constr:    0.0000
     atom:    2    charge:   14.7119    magn:    3.0498    constr:    0.0000

     total cpu time spent up to now is       32.0 secs

     total energy              =    -658.18151614 Ry
     Harris-Foulkes estimate   =    -658.65176061 Ry
     estimated scf accuracy    <       1.30708081 Ry

     total magnetization       =     6.67 Bohr mag/cell
     absolute magnetization    =     6.94 Bohr mag/cell

     iteration #  4     ecut=    50.00 Ry     beta=0.70
     Davidson diagonalization with overlap
     ethr =  2.57E-03,  avg # of iterations =  2.7

     negative rho (up, down):  0.000E+00 9.948E-04

     Magnetic moment per site:
     atom:    1    charge:   14.7728    magn:    2.9649    constr:    0.0000
     atom:    2    charge:   14.7728    magn:    2.9649    constr:    0.0000

     total cpu time spent up to now is       41.0 secs

     total energy              =    -658.40625844 Ry
     Harris-Foulkes estimate   =    -658.40660770 Ry
     estimated scf accuracy    <       0.00726443 Ry

     total magnetization       =     5.82 Bohr mag/cell
     absolute magnetization    =     6.22 Bohr mag/cell

     iteration #  5     ecut=    50.00 Ry     beta=0.70
     Davidson diagonalization with overlap
     ethr =  2.27E-05,  avg # of iterations =  3.2

     negative rho (up, down):  0.000E+00 1.005E-03

     Magnetic moment per site:
     atom:    1    charge:   14.7612    magn:    2.9766    constr:    0.0000
     atom:    2    charge:   14.7612    magn:    2.9766    constr:    0.0000

     total cpu time spent up to now is       52.6 secs

     total energy              =    -658.41373259 Ry
     Harris-Foulkes estimate   =    -658.41265008 Ry
     estimated scf accuracy    <       0.00084561 Ry

     total magnetization       =     5.79 Bohr mag/cell
     absolute magnetization    =     6.16 Bohr mag/cell

     iteration #  6     ecut=    50.00 Ry     beta=0.70
     Davidson diagonalization with overlap
     ethr =  2.64E-06,  avg # of iterations =  2.0

     negative rho (up, down):  0.000E+00 1.019E-03

     Magnetic moment per site:
     atom:    1    charge:   14.7609    magn:    2.9837    constr:    0.0000
     atom:    2    charge:   14.7609    magn:    2.9837    constr:    0.0000

     total cpu time spent up to now is       60.5 secs

     total energy              =    -658.41296502 Ry
     Harris-Foulkes estimate   =    -658.41400863 Ry
     estimated scf accuracy    <       0.00061490 Ry

     total magnetization       =     5.78 Bohr mag/cell
     absolute magnetization    =     6.14 Bohr mag/cell

     iteration #  7     ecut=    50.00 Ry     beta=0.70
     Davidson diagonalization with overlap
     ethr =  1.92E-06,  avg # of iterations =  1.5

     negative rho (up, down):  0.000E+00 9.714E-04

     Magnetic moment per site:
     atom:    1    charge:   14.7595    magn:    2.9666    constr:    0.0000
     atom:    2    charge:   14.7595    magn:    2.9666    constr:    0.0000

     total cpu time spent up to now is       68.0 secs

     total energy              =    -658.41460828 Ry
     Harris-Foulkes estimate   =    -658.41299182 Ry
     estimated scf accuracy    <       0.00156351 Ry

     total magnetization       =     5.78 Bohr mag/cell
     absolute magnetization    =     6.15 Bohr mag/cell

     iteration #  8     ecut=    50.00 Ry     beta=0.70
     Davidson diagonalization with overlap
     ethr =  1.92E-06,  avg # of iterations =  2.7

     negative rho (up, down):  0.000E+00 9.744E-04

     Magnetic moment per site:
     atom:    1    charge:   14.7615    magn:    2.9656    constr:    0.0000
     atom:    2    charge:   14.7615    magn:    2.9656    constr:    0.0000

     total cpu time spent up to now is       77.4 secs

     total energy              =    -658.41516080 Ry
     Harris-Foulkes estimate   =    -658.41515882 Ry
     estimated scf accuracy    <       0.00020715 Ry

     total magnetization       =     5.76 Bohr mag/cell
     absolute magnetization    =     6.11 Bohr mag/cell

     iteration #  9     ecut=    50.00 Ry     beta=0.70
     Davidson diagonalization with overlap
     ethr =  6.47E-07,  avg # of iterations =  1.5

     negative rho (up, down):  0.000E+00 9.648E-04

     Magnetic moment per site:
     atom:    1    charge:   14.7628    magn:    2.9539    constr:    0.0000
     atom:    2    charge:   14.7628    magn:    2.9539    constr:    0.0000

     total cpu time spent up to now is       84.9 secs

     total energy              =    -658.41544622 Ry
     Harris-Foulkes estimate   =    -658.41517644 Ry
     estimated scf accuracy    <       0.00040944 Ry

     total magnetization       =     5.76 Bohr mag/cell
     absolute magnetization    =     6.10 Bohr mag/cell

     iteration # 10     ecut=    50.00 Ry     beta=0.70
     Davidson diagonalization with overlap
     ethr =  6.47E-07,  avg # of iterations =  2.3

     negative rho (up, down):  0.000E+00 9.555E-04

     Magnetic moment per site:
     atom:    1    charge:   14.7633    magn:    2.9457    constr:    0.0000
     atom:    2    charge:   14.7633    magn:    2.9457    constr:    0.0000

     total cpu time spent up to now is       93.1 secs

     total energy              =    -658.41557173 Ry
     Harris-Foulkes estimate   =    -658.41552158 Ry
     estimated scf accuracy    <       0.00011054 Ry

     total magnetization       =     5.75 Bohr mag/cell
     absolute magnetization    =     6.09 Bohr mag/cell

     iteration # 11     ecut=    50.00 Ry     beta=0.70
     Davidson diagonalization with overlap
     ethr =  3.45E-07,  avg # of iterations =  2.7

     negative rho (up, down):  0.000E+00 9.488E-04

     Magnetic moment per site:
     atom:    1    charge:   14.7638    magn:    2.9403    constr:    0.0000
     atom:    2    charge:   14.7638    magn:    2.9403    constr:    0.0000

     total cpu time spent up to now is      101.3 secs

     total energy              =    -658.41562637 Ry
     Harris-Foulkes estimate   =    -658.41561907 Ry
     estimated scf accuracy    <       0.00001134 Ry

     total magnetization       =     5.74 Bohr mag/cell
     absolute magnetization    =     6.07 Bohr mag/cell

     iteration # 12     ecut=    50.00 Ry     beta=0.70
     Davidson diagonalization with overlap
     ethr =  3.54E-08,  avg # of iterations =  3.6

     negative rho (up, down):  0.000E+00 9.450E-04

     Magnetic moment per site:
     atom:    1    charge:   14.7642    magn:    2.9362    constr:    0.0000
     atom:    2    charge:   14.7642    magn:    2.9362    constr:    0.0000

     total cpu time spent up to now is      113.8 secs

     total energy              =    -658.41562472 Ry
     Harris-Foulkes estimate   =    -658.41564431 Ry
     estimated scf accuracy    <       0.00000015 Ry

     total magnetization       =     5.74 Bohr mag/cell
     absolute magnetization    =     6.06 Bohr mag/cell

     iteration # 13     ecut=    50.00 Ry     beta=0.70
     Davidson diagonalization with overlap
     ethr =  4.63E-10,  avg # of iterations =  5.1

     negative rho (up, down):  0.000E+00 9.487E-04

     Magnetic moment per site:
     atom:    1    charge:   14.7637    magn:    2.9408    constr:    0.0000
     atom:    2    charge:   14.7637    magn:    2.9408    constr:    0.0000

     total cpu time spent up to now is      128.7 secs

     total energy              =    -658.41566927 Ry
     Harris-Foulkes estimate   =    -658.41563505 Ry
     estimated scf accuracy    <       0.00000871 Ry

     total magnetization       =     5.73 Bohr mag/cell
     absolute magnetization    =     6.06 Bohr mag/cell

     iteration # 14     ecut=    50.00 Ry     beta=0.70
     Davidson diagonalization with overlap
     ethr =  4.63E-10,  avg # of iterations =  4.4

     negative rho (up, down):  0.000E+00 9.481E-04

     Magnetic moment per site:
     atom:    1    charge:   14.7637    magn:    2.9403    constr:    0.0000
     atom:    2    charge:   14.7637    magn:    2.9403    constr:    0.0000

     total cpu time spent up to now is      141.7 secs

     total energy              =    -658.41567528 Ry
     Harris-Foulkes estimate   =    -658.41567349 Ry
     estimated scf accuracy    <       0.00000343 Ry

     total magnetization       =     5.73 Bohr mag/cell
     absolute magnetization    =     6.06 Bohr mag/cell

     iteration # 15     ecut=    50.00 Ry     beta=0.70
     Davidson diagonalization with overlap
     ethr =  4.63E-10,  avg # of iterations =  2.8

     negative rho (up, down):  0.000E+00 9.469E-04

     Magnetic moment per site:
     atom:    1    charge:   14.7639    magn:    2.9388    constr:    0.0000
     atom:    2    charge:   14.7639    magn:    2.9388    constr:    0.0000

     total cpu time spent up to now is      151.3 secs

     total energy              =    -658.41567628 Ry
     Harris-Foulkes estimate   =    -658.41567544 Ry
     estimated scf accuracy    <       0.00000172 Ry

     total magnetization       =     5.73 Bohr mag/cell
     absolute magnetization    =     6.06 Bohr mag/cell

     iteration # 16     ecut=    50.00 Ry     beta=0.70
     Davidson diagonalization with overlap
     ethr =  4.63E-10,  avg # of iterations =  3.9

     negative rho (up, down):  0.000E+00 9.468E-04

     Magnetic moment per site:
     atom:    1    charge:   14.7639    magn:    2.9388    constr:    0.0000
     atom:    2    charge:   14.7639    magn:    2.9388    constr:    0.0000

     total cpu time spent up to now is      162.1 secs

     End of self-consistent calculation

 ------ SPIN UP ------------


          k = 0.0000 0.0000 0.0000 (  1377 PWs)   bands (ev):

   -77.5340 -77.5269 -43.6016 -43.6016 -43.5928 -43.5928 -43.4946 -43.4257
     4.1236   7.2595   8.5803   8.5803   8.7054   8.7054   8.7467   8.7467
     8.8689   9.2092   9.2092  10.4531

          k = 0.0000 0.0000 0.1156 (  1383 PWs)   bands (ev):

   -77.5336 -77.5275 -43.6006 -43.6006 -43.5940 -43.5940 -43.4877 -43.4333
     4.3838   7.0374   8.5297   8.5297   8.6590   8.6590   8.8303   8.8544
     8.8544   9.2006   9.2006   9.5403

          k = 0.0000 0.0000 0.2312 (  1401 PWs)   bands (ev):

   -77.5319 -77.5296 -43.5989 -43.5989 -43.5964 -43.5964 -43.4718 -43.4510
     5.1285   6.1903   8.5130   8.5130   8.5694   8.5694   8.7600   8.8390
     9.0196   9.0196   9.1450   9.1450

          k = 0.0000 0.1155 0.0000 (  1379 PWs)   bands (ev):

   -77.5332 -77.5261 -43.6090 -43.6038 -43.6010 -43.5943 -43.4921 -43.4261
     4.3865   7.4306   8.4880   8.6136   8.6531   8.6783   8.6983   8.7956
     8.8315   8.9608   9.2227  11.1582

          k = 0.0000 0.1155 0.1156 (  1390 PWs)   bands (ev):

   -77.5328 -77.5269 -43.6084 -43.6031 -43.6019 -43.5956 -43.4857 -43.4332
     4.6418   7.2246   8.4530   8.5032   8.5925   8.6804   8.7376   8.8103
     8.8538   9.0023   9.2116  10.1803

          k = 0.0000 0.1155 0.2312 (  1404 PWs)   bands (ev):

   -77.5312 -77.5288 -43.6067 -43.6042 -43.6008 -43.5983 -43.4698 -43.4502
     5.3713   6.4085   8.3989   8.4322   8.5805   8.6445   8.6682   8.7197
     9.0209   9.1505   9.1534   9.4406

          k = 0.0000 0.2309 0.0000 (  1401 PWs)   bands (ev):

   -77.5309 -77.5248 -43.6290 -43.6209 -43.6095 -43.5988 -43.4857 -43.4290
     5.1394   7.7653   8.0978   8.3740   8.5657   8.5853   8.6173   8.9456
     9.0394   9.1953   9.2450  12.4776

          k = 0.0000 0.2309 0.1156 (  1411 PWs)   bands (ev):

   -77.5305 -77.5255 -43.6284 -43.6219 -43.6090 -43.6001 -43.4803 -43.4346
     5.3739   7.5954   8.0775   8.3483   8.5346   8.6088   8.6766   8.9421
     9.0160   9.2210   9.2442  11.0508

          k = 0.0000 0.2309 0.2312 (  1396 PWs)   bands (ev):

   -77.5287 -77.5268 -43.6261 -43.6236 -43.6062 -43.6028 -43.4655 -43.4481
     6.0347   6.9200   8.1655   8.2859   8.5741   8.6520   8.6865   8.8139
     9.1046   9.1995   9.3859   9.8912

          k = 0.0000 0.3464 0.0000 (  1408 PWs)   bands (ev):

   -77.5276 -77.5230 -43.6525 -43.6440 -43.6165 -43.6042 -43.4768 -43.4327
     6.2272   7.6738   7.7302   8.4060   8.4476   8.4616   8.8300   9.2575
     9.2984   9.3595   9.6009  14.0896

          k = 0.0000 0.3464 0.1156 (  1403 PWs)   bands (ev):

   -77.5271 -77.5233 -43.6521 -43.6449 -43.6155 -43.6053 -43.4721 -43.4363
     6.3817   7.5488   7.8345   8.2031   8.5211   8.7271   8.8587   9.1299
     9.3190   9.3962   9.5671  12.0642

          k = 0.0000 0.3464 0.2312 (  1404 PWs)   bands (ev):

   -77.5259 -77.5245 -43.6505 -43.6479 -43.6127 -43.6086 -43.4604 -43.4469
     6.7709   7.2175   8.0026   8.1231   8.6846   8.9090   8.9418   9.0140
     9.3591   9.3960   9.6356  10.4582

          k = 0.0000 0.4619 0.0000 (  1412 PWs)   bands (ev):

   -77.5249 -77.5215 -43.6720 -43.6633 -43.6219 -43.6087 -43.4673 -43.4371
     7.0880   7.4261   7.5400   8.3161   8.3694   8.7598   9.1578   9.2605
     9.5972   9.6448  10.3647  14.5147

          k = 0.0000 0.4619 0.1156 (  1415 PWs)   bands (ev):

   -77.5246 -77.5219 -43.6716 -43.6645 -43.6208 -43.6099 -43.4642 -43.4397
     7.0147   7.4278   7.7021   8.0542   8.4433   9.0855   9.1576   9.3785
     9.6052   9.6484  10.2677  13.2101

          k = 0.0000 0.4619 0.2312 (  1412 PWs)   bands (ev):

   -77.5237 -77.5227 -43.6702 -43.6675 -43.6175 -43.6132 -43.4555 -43.4465
     7.0437   7.2352   7.8918   7.9592   8.6451   8.9149   9.4524   9.6240
     9.6425   9.8465  10.2991  11.5114

          k = 0.0000-0.5774 0.0000 (  1408 PWs)   bands (ev):

   -77.5235 -77.5211 -43.6793 -43.6706 -43.6239 -43.6099 -43.4627 -43.4400
     7.3192   7.3459   7.4293   8.2663   8.3356   9.1459   9.2122   9.2605
     9.7109   9.7653  11.5580  12.7069

          k = 0.0000-0.5774 0.1156 (  1412 PWs)   bands (ev):

   -77.5234 -77.5213 -43.6790 -43.6717 -43.6228 -43.6113 -43.4602 -43.4419
     7.0882   7.4065   7.6814   8.0000   8.4139   9.1592   9.2316   9.6420
     9.7179   9.7608  11.4909  12.6167

          k = 0.0000-0.5774 0.2312 (  1408 PWs)   bands (ev):

   -77.5228 -77.5218 -43.6777 -43.6747 -43.6190 -43.6148 -43.4533 -43.4466
     7.0591   7.2289   7.8728   7.8759   8.6272   8.9103   9.5833   9.7329
     9.7488   9.9629  11.6209  12.2331

          k = 0.1000 0.1732 0.0000 (  1406 PWs)   bands (ev):

   -77.5319 -77.5253 -43.6219 -43.6162 -43.6069 -43.5993 -43.4878 -43.4281
     4.8955   7.7127   8.2588   8.3412   8.5332   8.5765   8.7387   8.8922
     8.9337   9.1415   9.2277  12.0929

          k = 0.1000 0.1732 0.1156 (  1405 PWs)   bands (ev):

   -77.5313 -77.5259 -43.6210 -43.6163 -43.6061 -43.6000 -43.4822 -43.4342
     5.1389   7.5302   8.1851   8.3334   8.5543   8.6119   8.6925   8.8776
     8.9688   9.1636   9.2280  10.8114

          k = 0.1000 0.1732 0.2312 (  1400 PWs)   bands (ev):

   -77.5296 -77.5274 -43.6194 -43.6176 -43.6046 -43.6024 -43.4668 -43.4488
     5.8292   6.7852   8.2239   8.3120   8.5640   8.6136   8.6807   8.7698
     9.0873   9.1857   9.3212   9.7688

          k = 0.1000 0.2887 0.0000 (  1412 PWs)   bands (ev):

   -77.5289 -77.5236 -43.6419 -43.6358 -43.6150 -43.6051 -43.4800 -43.4312
     5.8378   7.8323   7.9133   8.2609   8.3774   8.5742   8.6203   9.1591
     9.2271   9.2724   9.5085  13.5000

          k = 0.1000 0.2887 0.1156 (  1404 PWs)   bands (ev):

   -77.5283 -77.5240 -43.6413 -43.6362 -43.6138 -43.6062 -43.4751 -43.4355
     6.0393   7.6743   7.9758   8.2367   8.4561   8.5814   8.6231   9.0551
     9.2728   9.3136   9.5053  11.7024

          k = 0.1000 0.2887 0.2312 (  1398 PWs)   bands (ev):

   -77.5269 -77.5252 -43.6400 -43.6380 -43.6117 -43.6088 -43.4622 -43.4472
     6.5741   7.2164   8.1012   8.2099   8.5345   8.5936   8.6970   8.8742
     9.3868   9.4321   9.5419  10.2529

          k = 0.1000 0.4041 0.0000 (  1408 PWs)   bands (ev):

   -77.5257 -77.5219 -43.6622 -43.6549 -43.6229 -43.6108 -43.4704 -43.4355
     6.9016   7.5381   7.7242   8.2740   8.4004   8.4619   8.8871   9.2236
     9.4422   9.6379  10.1060  14.9957

          k = 0.1000 0.4041 0.1156 (  1405 PWs)   bands (ev):

   -77.5253 -77.5222 -43.6618 -43.6559 -43.6218 -43.6119 -43.4667 -43.4383
     6.9417   7.5200   7.8009   8.1152   8.4526   8.7314   8.9064   9.1173
     9.4780   9.6899  10.0718  12.8791

          k = 0.1000 0.4041 0.2312 (  1410 PWs)   bands (ev):

   -77.5245 -77.5232 -43.6606 -43.6586 -43.6190 -43.6152 -43.4572 -43.4467
     7.0846   7.3186   7.9755   8.0837   8.5775   8.8152   9.0109   9.0373
     9.6639   9.8073  10.1381  11.1502

          k = 0.1000 0.5196 0.0000 (  1418 PWs)   bands (ev):

   -77.5238 -77.5212 -43.6756 -43.6670 -43.6276 -43.6146 -43.4628 -43.4401
     7.3908   7.3946   7.5614   8.2503   8.3265   8.8322   9.0923   9.2195
     9.6814   9.8195  11.2594  13.6316

          k = 0.1000 0.5196 0.1156 (  1415 PWs)   bands (ev):

   -77.5235 -77.5214 -43.6752 -43.6680 -43.6266 -43.6159 -43.4600 -43.4417
     7.1743   7.5140   7.7488   8.0170   8.3524   9.0676   9.1450   9.2078
     9.6905   9.8864  11.2744  13.3910

          k = 0.1000 0.5196 0.2312 (  1406 PWs)   bands (ev):

   -77.5227 -77.5218 -43.6734 -43.6707 -43.6233 -43.6192 -43.4532 -43.4466
     7.1563   7.3284   7.9189   7.9709   8.5159   8.8186   9.3482   9.4091
     9.7746   9.9527  11.5689  12.4528

          k = 0.2000 0.3464 0.0000 (  1412 PWs)   bands (ev):

   -77.5261 -77.5222 -43.6535 -43.6523 -43.6239 -43.6156 -43.4719 -43.4349
     6.8401   7.6152   8.0080   8.0900   8.2140   8.5273   8.6733   9.1827
     9.3282   9.6865  10.0863  15.0023

          k = 0.2000 0.3464 0.1156 (  1400 PWs)   bands (ev):

   -77.5255 -77.5224 -43.6536 -43.6523 -43.6234 -43.6165 -43.4676 -43.4372
     6.9379   7.5629   8.0202   8.1499   8.3457   8.4907   8.6627   9.0634
     9.4105   9.7297  10.0883  12.7677

          k = 0.2000 0.3464 0.2312 (  1410 PWs)   bands (ev):

   -77.5248 -77.5234 -43.6536 -43.6534 -43.6218 -43.6192 -43.4578 -43.4467
     7.1642   7.4038   8.1036   8.1948   8.5004   8.5144   8.6760   8.8387
     9.6981   9.8018  10.1906  11.0892

          k = 0.2000 0.4619 0.0000 (  1423 PWs)   bands (ev):

   -77.5238 -77.5214 -43.6660 -43.6604 -43.6345 -43.6242 -43.4630 -43.4403
     7.4899   7.6100   7.8467   8.1576   8.2726   8.3676   8.8792   9.1478
     9.5516   9.8923  11.1082  15.3702

          k = 0.2000 0.4619 0.1156 (  1415 PWs)   bands (ev):

   -77.5234 -77.5214 -43.6657 -43.6609 -43.6338 -43.6256 -43.4600 -43.4416
     7.4039   7.6495   7.8858   8.1067   8.3028   8.5393   8.8873   9.0466
     9.6100   9.9295  11.1865  14.1895

          k = 0.2000 0.4619 0.2312 (  1412 PWs)   bands (ev):

   -77.5228 -77.5220 -43.6643 -43.6626 -43.6318 -43.6285 -43.4533 -43.4463
     7.3951   7.5102   8.0290   8.1728   8.3413   8.5865   8.9171   8.9280
     9.8070   9.9524  11.5691  12.5793

          k = 0.2000 0.5774 0.0000 (  1414 PWs)   bands (ev):

   -77.5225 -77.5210 -43.6709 -43.6616 -43.6395 -43.6272 -43.4579 -43.4434
     7.4509   7.7404   7.7761   8.2033   8.2376   8.5135   8.9814   9.1351
     9.6974   9.8970  12.6099  13.2969

          k = 0.2000 0.5774 0.1156 (  1419 PWs)   bands (ev):

   -77.5225 -77.5213 -43.6704 -43.6633 -43.6387 -43.6288 -43.4557 -43.4444
     7.3869   7.7791   7.9156   8.0031   8.2061   8.7006   9.0111   9.0517
     9.7320   9.9376  12.7665  13.3431

          k = 0.2000 0.5774 0.2312 (  1421 PWs)   bands (ev):

   -77.5221 -77.5216 -43.6686 -43.6658 -43.6361 -43.6324 -43.4512 -43.4471
     7.4012   7.5727   8.0189   8.1444   8.2399   8.5793   9.0508   9.0683
     9.8480   9.9582  13.1815  13.4285

          k = 0.3000 0.5196 0.0000 (  1424 PWs)   bands (ev):

   -77.5222 -77.5212 -43.6635 -43.6564 -43.6474 -43.6388 -43.4551 -43.4464
     7.5020   7.9471   8.0920   8.1322   8.1369   8.2297   8.8772   9.0916
     9.7134   9.8827  12.7649  15.0020

          k = 0.3000 0.5196 0.1156 (  1424 PWs)   bands (ev):

   -77.5221 -77.5213 -43.6626 -43.6573 -43.6473 -43.6399 -43.4533 -43.4465
     7.5531   7.8516   8.0325   8.0338   8.2881   8.3575   8.8628   8.9945
     9.7627   9.9140  12.9391  15.0081

          k = 0.3000 0.5196 0.2312 (  1422 PWs)   bands (ev):

   -77.5218 -77.5215 -43.6606 -43.6588 -43.6461 -43.6430 -43.4502 -43.4474
     7.6496   7.7260   8.0076   8.0395   8.3636   8.4321   8.8400   8.8584
     9.8771   9.9428  13.4790  14.3878

 ------ SPIN DOWN ----------


          k = 0.0000 0.0000 0.0000 (  1377 PWs)   bands (ev):

   -74.1763 -74.1679 -40.2902 -40.2721 -40.2721 -40.2620 -40.2620 -40.2098
     4.3934   8.1943  10.4462  10.5813  11.2063  11.2063  11.3792  11.3792
    12.4662  12.4662  13.0800  13.0800

          k = 0.0000 0.0000 0.1156 (  1383 PWs)   bands (ev):

   -74.1757 -74.1687 -40.2823 -40.2709 -40.2709 -40.2632 -40.2632 -40.2184
     4.6540   7.7100  10.2626  10.3859  11.2031  11.2031  11.3457  11.3457
    12.5463  12.5463  13.0407  13.0407

          k = 0.0000 0.0000 0.2312 (  1401 PWs)   bands (ev):

   -74.1737 -74.1711 -40.2689 -40.2689 -40.2659 -40.2659 -40.2630 -40.2387
     5.4076   6.5419  10.1247  10.2411  11.2180  11.2180  11.2740  11.2740
    12.7312  12.7312  12.9189  12.9189

          k = 0.0000 0.1155 0.0000 (  1379 PWs)   bands (ev):

   -74.1753 -74.1671 -40.2872 -40.2807 -40.2745 -40.2714 -40.2637 -40.2104
     4.6574   8.3973  10.4650  10.4840  11.1251  11.2983  11.3244  11.4882
    12.3512  12.3926  13.1026  13.4646

          k = 0.0000 0.1155 0.1156 (  1390 PWs)   bands (ev):

   -74.1746 -74.1680 -40.2835 -40.2763 -40.2736 -40.2726 -40.2651 -40.2182
     4.9150   7.9315  10.2035  10.4305  11.1047  11.2760  11.3186  11.4539
    12.4477  12.4831  13.0527  13.1935

          k = 0.0000 0.1155 0.2312 (  1404 PWs)   bands (ev):

   -74.1728 -74.1702 -40.2795 -40.2758 -40.2711 -40.2681 -40.2594 -40.2371
     5.6605   6.7850  10.1279  10.2786  11.1112  11.1875  11.3294  11.3827
    12.6800  12.6909  12.9059  12.9366

          k = 0.0000 0.2309 0.0000 (  1401 PWs)   bands (ev):

   -74.1725 -74.1654 -40.3040 -40.2947 -40.2813 -40.2797 -40.2689 -40.2134
     5.4237   8.9149  10.2585  10.4874  10.9460  11.2239  11.6505  11.7848
    12.0991  12.2240  13.1387  14.3977

          k = 0.0000 0.2309 0.1156 (  1411 PWs)   bands (ev):

   -74.1719 -74.1662 -40.3046 -40.2963 -40.2804 -40.2720 -40.2703 -40.2193
     5.6716   8.5241  10.0839  10.4929  10.8867  11.1622  11.6342  11.7472
    12.2370  12.3419  13.0652  13.5313

          k = 0.0000 0.2309 0.2312 (  1396 PWs)   bands (ev):

   -74.1700 -74.1678 -40.3029 -40.2995 -40.2773 -40.2734 -40.2540 -40.2342
     6.3915   7.4634  10.1327  10.3686  10.8579  11.0048  11.6325  11.6789
    12.5683  12.5964  12.8655  12.9772

          k = 0.0000 0.3464 0.0000 (  1408 PWs)   bands (ev):

   -74.1687 -74.1633 -40.3319 -40.3221 -40.2893 -40.2751 -40.2690 -40.2175
     6.6101   9.4079  10.1244  10.3668  10.7422  11.5303  11.7946  12.0425
    12.0941  12.1787  13.1588  15.3800

          k = 0.0000 0.3464 0.1156 (  1403 PWs)   bands (ev):

   -74.1681 -74.1637 -40.3323 -40.3238 -40.2881 -40.2764 -40.2627 -40.2213
     6.8337   9.1933   9.9823  10.4712  10.6647  11.2897  11.9991  12.0548
    12.1335  12.2583  13.0585  13.9551

          k = 0.0000 0.3464 0.2312 (  1404 PWs)   bands (ev):

   -74.1667 -74.1651 -40.3315 -40.3282 -40.2847 -40.2802 -40.2481 -40.2326
     7.4697   8.3814  10.1066  10.4036  10.6847  10.9712  12.0154  12.0764
    12.4752  12.5105  12.8078  13.0453

          k = 0.0000 0.4619 0.0000 (  1412 PWs)   bands (ev):

   -74.1654 -74.1616 -40.3550 -40.3447 -40.2956 -40.2802 -40.2579 -40.2228
     7.9693   9.4689  10.0861  10.2060  10.7821  11.5363  11.9087  12.1756
    12.4833  12.5369  13.1639  15.2831

          k = 0.0000 0.4619 0.1156 (  1415 PWs)   bands (ev):

   -74.1651 -74.1620 -40.3551 -40.3468 -40.2943 -40.2817 -40.2535 -40.2252
     8.1265   9.4128   9.9469  10.3605  10.7428  11.5437  11.9979  12.2037
    12.5010  12.5174  13.0359  14.3275

          k = 0.0000 0.4619 0.2312 (  1412 PWs)   bands (ev):

   -74.1641 -74.1629 -40.3545 -40.3512 -40.2904 -40.2855 -40.2426 -40.2321
     8.5415   9.0558  10.0455  10.2825  10.9355  11.3226  12.2289  12.4397
    12.4965  12.5659  12.7541  13.1839

          k = 0.0000-0.5774 0.0000 (  1408 PWs)   bands (ev):

   -74.1639 -74.1611 -40.3636 -40.3533 -40.2979 -40.2818 -40.2525 -40.2262
     8.8003   9.3102  10.0834  10.0874  10.8447  11.4310  11.8598  12.6305
    12.6959  12.9265  13.1640  14.0326

          k = 0.0000-0.5774 0.1156 (  1412 PWs)   bands (ev):

   -74.1638 -74.1614 -40.3639 -40.3552 -40.2966 -40.2834 -40.2488 -40.2277
     8.8573   9.3017  10.0146  10.1913  10.8401  11.7041  11.9621  12.6329
    12.6772  12.6915  13.0160  13.8450

          k = 0.0000-0.5774 0.2312 (  1408 PWs)   bands (ev):

   -74.1631 -74.1621 -40.3632 -40.3597 -40.2923 -40.2874 -40.2401 -40.2323
     9.0067   9.1925  10.0525  10.2170  11.1343  11.7906  12.2441  12.5761
    12.5900  12.6816  12.7119  13.2841

          k = 0.1000 0.1732 0.0000 (  1406 PWs)   bands (ev):

   -74.1735 -74.1660 -40.2955 -40.2892 -40.2822 -40.2780 -40.2692 -40.2124
     5.1725   8.7621  10.3126  10.5006  11.0389  11.1498  11.5567  11.7073
    12.1305  12.3250  13.1112  14.1165

          k = 0.1000 0.1732 0.1156 (  1405 PWs)   bands (ev):

   -74.1728 -74.1667 -40.2962 -40.2898 -40.2774 -40.2741 -40.2700 -40.2189
     5.4243   8.3431  10.1173  10.4849  10.9555  11.1493  11.5410  11.6671
    12.2856  12.4008  13.0458  13.4430

          k = 0.1000 0.1732 0.2312 (  1400 PWs)   bands (ev):

   -74.1709 -74.1685 -40.2949 -40.2921 -40.2756 -40.2729 -40.2554 -40.2350
     6.1537   7.2486  10.1343  10.3462  10.9206  11.0369  11.5451  11.5957
    12.6088  12.6166  12.8641  12.9777

          k = 0.1000 0.2887 0.0000 (  1412 PWs)   bands (ev):

   -74.1701 -74.1640 -40.3192 -40.3124 -40.2874 -40.2761 -40.2729 -40.2159
     6.1546   9.3089  10.1749  10.3661  10.8896  11.2102  11.8533  11.9477
    12.0967  12.1520  13.1123  15.2177

          k = 0.1000 0.2887 0.1156 (  1404 PWs)   bands (ev):

   -74.1695 -74.1645 -40.3196 -40.3135 -40.2863 -40.2775 -40.2660 -40.2204
     6.3921   9.0170  10.0207  10.4275  10.8154  11.0823  11.8737  12.0002
    12.1364  12.2915  13.0250  13.8381

          k = 0.1000 0.2887 0.2312 (  1398 PWs)   bands (ev):

   -74.1679 -74.1660 -40.3191 -40.3165 -40.2840 -40.2806 -40.2500 -40.2329
     7.0716   8.0696  10.1405  10.4448  10.6500  10.8676  11.8910  11.9655
    12.5178  12.5321  12.8030  13.0547

          k = 0.1000 0.4041 0.0000 (  1408 PWs)   bands (ev):

   -74.1664 -74.1621 -40.3434 -40.3349 -40.2967 -40.2828 -40.2616 -40.2208
     7.4615   9.5905  10.1288  10.2143  10.7961  11.6080  11.6445  11.9361
    12.3262  12.5582  13.1080  15.7622

          k = 0.1000 0.4041 0.1156 (  1405 PWs)   bands (ev):

   -74.1660 -74.1625 -40.3437 -40.3367 -40.2956 -40.2843 -40.2564 -40.2235
     7.6566   9.5103   9.9557  10.3669  10.6989  11.3044  11.9319  11.9917
    12.4259  12.5104  13.0127  14.3975

          k = 0.1000 0.4041 0.2312 (  1410 PWs)   bands (ev):

   -74.1650 -74.1636 -40.3433 -40.3407 -40.2925 -40.2881 -40.2441 -40.2321
     8.1989   8.9343  10.0958  10.3906  10.6456  10.9543  12.0828  12.3128
    12.4509  12.6157  12.8373  13.2700

          k = 0.1000 0.5196 0.0000 (  1418 PWs)   bands (ev):

   -74.1641 -74.1612 -40.3591 -40.3489 -40.3023 -40.2872 -40.2526 -40.2263
     8.6749   9.4862  10.0605  10.1422  10.8859  11.4501  11.7937  12.2321
    12.4972  13.0875  13.1022  14.7620

          k = 0.1000 0.5196 0.1156 (  1415 PWs)   bands (ev):

   -74.1638 -74.1614 -40.3592 -40.3508 -40.3012 -40.2888 -40.2486 -40.2275
     8.7763   9.4786   9.9724  10.2935  10.8119  11.4773  11.9057  12.2571
    12.5283  12.8296  13.1636  14.4427

          k = 0.1000 0.5196 0.2312 (  1406 PWs)   bands (ev):

   -74.1630 -74.1620 -40.3582 -40.3549 -40.2976 -40.2928 -40.2397 -40.2320
     9.0277   9.3135  10.0744  10.3012  10.9228  11.3084  12.1657  12.4052
    12.4265  12.6102  13.2255  13.7159

          k = 0.2000 0.3464 0.0000 (  1412 PWs)   bands (ev):

   -74.1668 -74.1623 -40.3329 -40.3321 -40.2980 -40.2883 -40.2632 -40.2202
     7.2792   9.7171  10.1233  10.1679  10.9283  11.2926  11.6058  11.9665
    12.2652  12.5944  13.0493  15.8840

          k = 0.2000 0.3464 0.1156 (  1400 PWs)   bands (ev):

   -74.1662 -74.1627 -40.3339 -40.3325 -40.2976 -40.2896 -40.2573 -40.2225
     7.4896   9.6402   9.9705  10.1965  10.9373  10.9802  11.8475  11.9449
    12.4439  12.5172  12.9851  14.4486

          k = 0.2000 0.3464 0.2312 (  1410 PWs)   bands (ev):

   -74.1653 -74.1638 -40.3351 -40.3345 -40.2961 -40.2930 -40.2446 -40.2319
     8.0759   8.9083  10.1641  10.3880  10.5758  10.7176  11.9829  12.2776
    12.4625  12.6188  12.8956  13.3475

          k = 0.2000 0.4619 0.0000 (  1423 PWs)   bands (ev):

   -74.1641 -74.1613 -40.3478 -40.3411 -40.3104 -40.2986 -40.2528 -40.2263
     8.5354   9.7676   9.9861  10.2442  11.0261  11.4511  11.6575  11.7082
    12.3594  12.9996  13.2298  16.2081

          k = 0.2000 0.4619 0.1156 (  1415 PWs)   bands (ev):

   -74.1637 -74.1615 -40.3479 -40.3425 -40.3099 -40.3003 -40.2485 -40.2272
     8.6868   9.8406   9.9445  10.2441  10.8907  11.1914  11.6863  11.9537
    12.4918  12.7378  13.3508  15.3443

          k = 0.2000 0.4619 0.2312 (  1412 PWs)   bands (ev):

   -74.1630 -74.1621 -40.3474 -40.3454 -40.3080 -40.3041 -40.2394 -40.2315
     9.0881   9.5731  10.1316  10.3589  10.6116  10.8043  11.8957  12.2869
    12.3771  12.5952  13.5635  14.1808

          k = 0.2000 0.5774 0.0000 (  1414 PWs)   bands (ev):

   -74.1627 -74.1609 -40.3534 -40.3428 -40.3163 -40.3021 -40.2468 -40.2302
     9.2557   9.6666   9.8897  10.3004  11.0899  11.4116  11.5668  12.0896
    12.1728  12.9810  14.0353  14.7132

          k = 0.2000 0.5774 0.1156 (  1419 PWs)   bands (ev):

   -74.1626 -74.1612 -40.3534 -40.3452 -40.3157 -40.3042 -40.2435 -40.2304
     9.3413   9.7051   9.9355  10.3652  10.8939  11.2261  11.7025  12.1597
    12.3077  12.7389  14.1735  14.7074

          k = 0.2000 0.5774 0.2312 (  1421 PWs)   bands (ev):

   -74.1622 -74.1616 -40.3522 -40.3490 -40.3131 -40.3087 -40.2370 -40.2322
     9.5328   9.6841  10.1527  10.4646  10.6349  10.8979  11.9376  12.2774
    12.3327  12.4427  14.4404  14.6520

          k = 0.3000 0.5196 0.0000 (  1424 PWs)   bands (ev):

   -74.1621 -74.1610 -40.3446 -40.3366 -40.3256 -40.3156 -40.2435 -40.2334
     9.4168   9.7872   9.8692  10.4115  11.3029  11.3779  11.4501  11.7693
    12.1133  12.9213  14.2980  15.9832

          k = 0.3000 0.5196 0.1156 (  1424 PWs)   bands (ev):

   -74.1621 -74.1612 -40.3439 -40.3383 -40.3262 -40.3172 -40.2406 -40.2327
     9.5366   9.8786   9.9335  10.3716  11.0592  11.0953  11.4902  12.0139
    12.2716  12.6704  14.4703  15.9643

          k = 0.3000 0.5196 0.2312 (  1422 PWs)   bands (ev):

   -74.1617 -74.1615 -40.3426 -40.3410 -40.3252 -40.3213 -40.2355 -40.2324
     9.8277  10.0188  10.1399  10.3582  10.5568  10.6789  11.7600  12.1908
    12.2945  12.3941  14.8922  15.5349

     the Fermi energy is    11.0460 ev

!    total energy              =    -658.41567727 Ry
     Harris-Foulkes estimate   =    -658.41567695 Ry
     estimated scf accuracy    <          6.2E-09 Ry

     total all-electron energy =     -5091.008748 Ry

     The total energy is the sum of the following terms:

     one-electron contribution =    -295.52692303 Ry
     hartree contribution      =     160.18537841 Ry
     xc contribution           =     -69.41786715 Ry
     ewald contribution        =    -301.37741946 Ry
     one-center paw contrib.   =    -152.27846463 Ry
     smearing contrib. (-TS)   =      -0.00038142 Ry

     total magnetization       =     5.73 Bohr mag/cell
     absolute magnetization    =     6.06 Bohr mag/cell

     convergence has been achieved in  16 iterations

     Forces acting on atoms (Ry/au):


     negative rho (up, down):  0.000E+00 9.468E-04
     atom    1 type  1   force =     0.00000000    0.00000000    0.00000000
     atom    2 type  1   force =    -0.00000000   -0.00000000    0.00000000

     Total force =     0.000000     Total SCF correction =     0.000000


     entering subroutine stress ...


     negative rho (up, down):  0.000E+00 9.468E-04
          total   stress  (Ry/bohr**3)                   (kbar)     P= -287.53
  -0.00210048   0.00000000   0.00000000       -308.99      0.00      0.00
   0.00000000  -0.00210048   0.00000000          0.00   -308.99      0.00
  -0.00000000   0.00000000  -0.00166291         -0.00      0.00   -244.62


     Writing output data file Fe_hcp.save

     init_run     :      5.40s CPU      5.44s WALL (       1 calls)
     electrons    :    164.95s CPU    156.30s WALL (       1 calls)
     forces       :      0.91s CPU      0.73s WALL (       1 calls)
     stress       :      2.62s CPU      2.77s WALL (       1 calls)

     Called by init_run:
     wfcinit      :      3.64s CPU      3.58s WALL (       1 calls)
     potinit      :      1.11s CPU      1.17s WALL (       1 calls)

     Called by electrons:
     c_bands      :    128.02s CPU    118.79s WALL (      16 calls)
     sum_band     :     18.98s CPU     18.71s WALL (      16 calls)
     v_of_rho     :      1.01s CPU      1.06s WALL (      17 calls)
     newd         :      1.25s CPU      1.32s WALL (      17 calls)
     mix_rho      :      0.16s CPU      0.21s WALL (      16 calls)

     Called by c_bands:
     init_us_2    :      1.66s CPU      1.70s WALL (    2940 calls)
     cegterg      :    123.40s CPU    114.05s WALL (    1344 calls)

     Called by *egterg:
     h_psi        :     96.75s CPU     95.06s WALL (    5219 calls)
     s_psi        :      4.46s CPU      2.61s WALL (    5219 calls)
     g_psi        :      0.63s CPU      0.65s WALL (    3791 calls)
     cdiaghg      :      5.64s CPU      5.78s WALL (    5135 calls)

     Called by h_psi:
     add_vuspsi   :      5.02s CPU      2.96s WALL (    5219 calls)

     General routines
     calbec       :      6.76s CPU      3.89s WALL (    6731 calls)
     fft          :      0.59s CPU      0.60s WALL (     561 calls)
     ffts         :      0.05s CPU      0.05s WALL (      66 calls)
     fftw         :     91.98s CPU     94.43s WALL (  176978 calls)
     interpolate  :      0.13s CPU      0.14s WALL (      66 calls)
     davcio       :      0.00s CPU      0.04s WALL (      84 calls)


     PAW routines
     PAW_pot      :     16.60s CPU     17.31s WALL (      17 calls)
     PAW_symme    :      0.02s CPU      0.02s WALL (      33 calls)

     PWSCF        :  2m54.40s CPU     2m45.95s WALL


   This run was terminated on:  22:11: 5  11May2015            

=------------------------------------------------------------------------------=
   JOB DONE.
=------------------------------------------------------------------------------=
