
     Program PWSCF v.5.1.2 starts on 11May2015 at 23: 0:22 

     This program is part of the open-source Quantum ESPRESSO suite
     for quantum simulation of materials; please cite
         "P. Giannozzi et al., J. Phys.:Condens. Matter 21 395502 (2009);
          URL http://www.quantum-espresso.org", 
     in publications or presentations arising from this work. More details at
     http://www.quantum-espresso.org/quote

     Serial version
     Reading input from Fe_HCP_5.45_174_10_5.pw.in

     Current dimensions of program PWSCF are:
     Max number of different atomic species (ntypx) = 10
     Max number of k-points (npk) =  40000
     Max angular momentum in pseudopotentials (lmaxx) =  3
               file Fe.pbe-spn-kjpaw_psl.0.2.1.UPF: wavefunction(s)  3D renormalized

     G-vector sticks info
     --------------------
     sticks:   dense  smooth     PW     G-vecs:    dense   smooth      PW
     Sum         511     421    121                16301    11719    1979

     Generating pointlists ...
     new r_m :   0.4125 (alat units)  2.2481 (a.u.) for type    1


     bravais-lattice index     =            4
     lattice parameter (alat)  =       5.4500  a.u.
     unit-cell volume          =     243.9323 (a.u.)^3
     number of atoms/cell      =            2
     number of atomic types    =            1
     number of electrons       =        32.00
     number of Kohn-Sham states=           20
     kinetic-energy cutoff     =      50.0000  Ry
     charge density cutoff     =     250.0000  Ry
     convergence threshold     =      1.0E-08
     mixing beta               =       0.7000
     number of iterations used =            8  plain     mixing
     Exchange-correlation      =  SLA  PW   PBX  PBC ( 1  4  3  4 0 0)

     celldm(1)=   5.450000  celldm(2)=   0.000000  celldm(3)=   1.740000
     celldm(4)=   0.000000  celldm(5)=   0.000000  celldm(6)=   0.000000

     crystal axes: (cart. coord. in units of alat)
               a(1) = (   1.000000   0.000000   0.000000 )  
               a(2) = (  -0.500000   0.866025   0.000000 )  
               a(3) = (   0.000000   0.000000   1.740000 )  

     reciprocal axes: (cart. coord. in units 2 pi/alat)
               b(1) = (  1.000000  0.577350 -0.000000 )  
               b(2) = (  0.000000  1.154701  0.000000 )  
               b(3) = (  0.000000 -0.000000  0.574713 )  


     PseudoPot. # 1 for Fe read from file:
     ./Fe.pbe-spn-kjpaw_psl.0.2.1.UPF
     MD5 check sum: a0a08122d52b112de96d1da1d7dd020f
     Pseudo is Projector augmented-wave + core cor, Zval = 16.0
     Generated using "atomic" code by A. Dal Corso  v.5.0.2 svn rev. 9415
     Shape of augmentation charge: PSQ
     Using radial grid of 1191 points,  6 beta functions with: 
                l(1) =   0
                l(2) =   0
                l(3) =   1
                l(4) =   1
                l(5) =   2
                l(6) =   2
     Q(r) pseudized with 0 coefficients 


     atomic species   valence    mass     pseudopotential
        Fe            16.00    55.85000     Fe( 1.00)

     Starting magnetic structure 
     atomic species   magnetization
        Fe           0.700

     24 Sym. Ops., with inversion, found (12 have fractional translation)



   Cartesian axes

     site n.     atom                  positions (alat units)
         1           Fe  tau(   1) = (  -0.0000000   0.5773503   0.4350000  )
         2           Fe  tau(   2) = (   0.5000000   0.2886751   1.3050000  )

     number of k points=    84  Marzari-Vanderbilt smearing, width (Ry)=  0.0250
                       cart. coord. in units 2pi/alat
        k(    1) = (   0.0000000   0.0000000   0.0000000), wk =   0.0020000
        k(    2) = (   0.0000000   0.0000000   0.1149425), wk =   0.0040000
        k(    3) = (   0.0000000   0.0000000   0.2298851), wk =   0.0040000
        k(    4) = (   0.0000000   0.1154701   0.0000000), wk =   0.0120000
        k(    5) = (   0.0000000   0.1154701   0.1149425), wk =   0.0240000
        k(    6) = (   0.0000000   0.1154701   0.2298851), wk =   0.0240000
        k(    7) = (   0.0000000   0.2309401   0.0000000), wk =   0.0120000
        k(    8) = (   0.0000000   0.2309401   0.1149425), wk =   0.0240000
        k(    9) = (   0.0000000   0.2309401   0.2298851), wk =   0.0240000
        k(   10) = (   0.0000000   0.3464102   0.0000000), wk =   0.0120000
        k(   11) = (   0.0000000   0.3464102   0.1149425), wk =   0.0240000
        k(   12) = (   0.0000000   0.3464102   0.2298851), wk =   0.0240000
        k(   13) = (   0.0000000   0.4618802   0.0000000), wk =   0.0120000
        k(   14) = (   0.0000000   0.4618802   0.1149425), wk =   0.0240000
        k(   15) = (   0.0000000   0.4618802   0.2298851), wk =   0.0240000
        k(   16) = (   0.0000000  -0.5773503   0.0000000), wk =   0.0060000
        k(   17) = (   0.0000000  -0.5773503   0.1149425), wk =   0.0120000
        k(   18) = (   0.0000000  -0.5773503   0.2298851), wk =   0.0120000
        k(   19) = (   0.1000000   0.1732051   0.0000000), wk =   0.0120000
        k(   20) = (   0.1000000   0.1732051   0.1149425), wk =   0.0240000
        k(   21) = (   0.1000000   0.1732051   0.2298851), wk =   0.0240000
        k(   22) = (   0.1000000   0.2886751   0.0000000), wk =   0.0240000
        k(   23) = (   0.1000000   0.2886751   0.1149425), wk =   0.0480000
        k(   24) = (   0.1000000   0.2886751   0.2298851), wk =   0.0480000
        k(   25) = (   0.1000000   0.4041452   0.0000000), wk =   0.0240000
        k(   26) = (   0.1000000   0.4041452   0.1149425), wk =   0.0480000
        k(   27) = (   0.1000000   0.4041452   0.2298851), wk =   0.0480000
        k(   28) = (   0.1000000   0.5196152   0.0000000), wk =   0.0240000
        k(   29) = (   0.1000000   0.5196152   0.1149425), wk =   0.0480000
        k(   30) = (   0.1000000   0.5196152   0.2298851), wk =   0.0480000
        k(   31) = (   0.2000000   0.3464102   0.0000000), wk =   0.0120000
        k(   32) = (   0.2000000   0.3464102   0.1149425), wk =   0.0240000
        k(   33) = (   0.2000000   0.3464102   0.2298851), wk =   0.0240000
        k(   34) = (   0.2000000   0.4618802   0.0000000), wk =   0.0240000
        k(   35) = (   0.2000000   0.4618802   0.1149425), wk =   0.0480000
        k(   36) = (   0.2000000   0.4618802   0.2298851), wk =   0.0480000
        k(   37) = (   0.2000000   0.5773503   0.0000000), wk =   0.0120000
        k(   38) = (   0.2000000   0.5773503   0.1149425), wk =   0.0240000
        k(   39) = (   0.2000000   0.5773503   0.2298851), wk =   0.0240000
        k(   40) = (   0.3000000   0.5196152   0.0000000), wk =   0.0120000
        k(   41) = (   0.3000000   0.5196152   0.1149425), wk =   0.0240000
        k(   42) = (   0.3000000   0.5196152   0.2298851), wk =   0.0240000
        k(   43) = (   0.0000000   0.0000000   0.0000000), wk =   0.0020000
        k(   44) = (   0.0000000   0.0000000   0.1149425), wk =   0.0040000
        k(   45) = (   0.0000000   0.0000000   0.2298851), wk =   0.0040000
        k(   46) = (   0.0000000   0.1154701   0.0000000), wk =   0.0120000
        k(   47) = (   0.0000000   0.1154701   0.1149425), wk =   0.0240000
        k(   48) = (   0.0000000   0.1154701   0.2298851), wk =   0.0240000
        k(   49) = (   0.0000000   0.2309401   0.0000000), wk =   0.0120000
        k(   50) = (   0.0000000   0.2309401   0.1149425), wk =   0.0240000
        k(   51) = (   0.0000000   0.2309401   0.2298851), wk =   0.0240000
        k(   52) = (   0.0000000   0.3464102   0.0000000), wk =   0.0120000
        k(   53) = (   0.0000000   0.3464102   0.1149425), wk =   0.0240000
        k(   54) = (   0.0000000   0.3464102   0.2298851), wk =   0.0240000
        k(   55) = (   0.0000000   0.4618802   0.0000000), wk =   0.0120000
        k(   56) = (   0.0000000   0.4618802   0.1149425), wk =   0.0240000
        k(   57) = (   0.0000000   0.4618802   0.2298851), wk =   0.0240000
        k(   58) = (   0.0000000  -0.5773503   0.0000000), wk =   0.0060000
        k(   59) = (   0.0000000  -0.5773503   0.1149425), wk =   0.0120000
        k(   60) = (   0.0000000  -0.5773503   0.2298851), wk =   0.0120000
        k(   61) = (   0.1000000   0.1732051   0.0000000), wk =   0.0120000
        k(   62) = (   0.1000000   0.1732051   0.1149425), wk =   0.0240000
        k(   63) = (   0.1000000   0.1732051   0.2298851), wk =   0.0240000
        k(   64) = (   0.1000000   0.2886751   0.0000000), wk =   0.0240000
        k(   65) = (   0.1000000   0.2886751   0.1149425), wk =   0.0480000
        k(   66) = (   0.1000000   0.2886751   0.2298851), wk =   0.0480000
        k(   67) = (   0.1000000   0.4041452   0.0000000), wk =   0.0240000
        k(   68) = (   0.1000000   0.4041452   0.1149425), wk =   0.0480000
        k(   69) = (   0.1000000   0.4041452   0.2298851), wk =   0.0480000
        k(   70) = (   0.1000000   0.5196152   0.0000000), wk =   0.0240000
        k(   71) = (   0.1000000   0.5196152   0.1149425), wk =   0.0480000
        k(   72) = (   0.1000000   0.5196152   0.2298851), wk =   0.0480000
        k(   73) = (   0.2000000   0.3464102   0.0000000), wk =   0.0120000
        k(   74) = (   0.2000000   0.3464102   0.1149425), wk =   0.0240000
        k(   75) = (   0.2000000   0.3464102   0.2298851), wk =   0.0240000
        k(   76) = (   0.2000000   0.4618802   0.0000000), wk =   0.0240000
        k(   77) = (   0.2000000   0.4618802   0.1149425), wk =   0.0480000
        k(   78) = (   0.2000000   0.4618802   0.2298851), wk =   0.0480000
        k(   79) = (   0.2000000   0.5773503   0.0000000), wk =   0.0120000
        k(   80) = (   0.2000000   0.5773503   0.1149425), wk =   0.0240000
        k(   81) = (   0.2000000   0.5773503   0.2298851), wk =   0.0240000
        k(   82) = (   0.3000000   0.5196152   0.0000000), wk =   0.0120000
        k(   83) = (   0.3000000   0.5196152   0.1149425), wk =   0.0240000
        k(   84) = (   0.3000000   0.5196152   0.2298851), wk =   0.0240000

     Dense  grid:    16301 G-vectors     FFT dimensions: (  27,  27,  48)

     Smooth grid:    11719 G-vectors     FFT dimensions: (  25,  25,  45)

     Largest allocated arrays     est. size (Mb)     dimensions
        Kohn-Sham Wavefunctions         0.45 Mb     (    1476,   20)
        NL pseudopotentials             0.81 Mb     (    1476,   36)
        Each V/rho on FFT grid          1.07 Mb     (   34992,   2)
        Each G-vector array             0.12 Mb     (   16301)
        G-vector shells                 0.01 Mb     (     848)
     Largest temporary arrays     est. size (Mb)     dimensions
        Auxiliary wavefunctions         1.80 Mb     (    1476,   80)
        Each subspace H/S matrix        0.10 Mb     (      80,   80)
        Each <psi_i|beta_j> matrix      0.01 Mb     (      36,   20)
        Arrays for rho mixing           4.27 Mb     (   34992,    8)

     Check: negative/imaginary core charge=   -0.000313    0.000000

     Initial potential from superposition of free atoms

     starting charge   31.99912, renormalised to   32.00000
     Starting wfc are   26 randomized atomic wfcs

     total cpu time spent up to now is        7.4 secs

     Self-consistent Calculation

     iteration #  1     ecut=    50.00 Ry     beta=0.70
     Davidson diagonalization with overlap
     ethr =  1.00E-02,  avg # of iterations =  2.0

     negative rho (up, down):  0.000E+00 1.120E-03

     Magnetic moment per site:
     atom:    1    charge:   14.6113    magn:    5.9501    constr:    0.0000
     atom:    2    charge:   14.6113    magn:    5.9501    constr:    0.0000

     total cpu time spent up to now is       18.2 secs

     total energy              =    -657.95781719 Ry
     Harris-Foulkes estimate   =    -656.24539530 Ry
     estimated scf accuracy    <       2.83441934 Ry

     total magnetization       =     8.00 Bohr mag/cell
     absolute magnetization    =     8.28 Bohr mag/cell

     iteration #  2     ecut=    50.00 Ry     beta=0.70
     Davidson diagonalization with overlap
     ethr =  8.86E-03,  avg # of iterations =  1.6

     negative rho (up, down):  0.000E+00 1.086E-03

     Magnetic moment per site:
     atom:    1    charge:   14.8393    magn:    4.0500    constr:    0.0000
     atom:    2    charge:   14.8393    magn:    4.0500    constr:    0.0000

     total cpu time spent up to now is       27.9 secs

     total energy              =    -658.12211337 Ry
     Harris-Foulkes estimate   =    -658.17565004 Ry
     estimated scf accuracy    <       0.85609281 Ry

     total magnetization       =     6.57 Bohr mag/cell
     absolute magnetization    =     6.87 Bohr mag/cell

     iteration #  3     ecut=    50.00 Ry     beta=0.70
     Davidson diagonalization with overlap
     ethr =  2.68E-03,  avg # of iterations =  3.0

     negative rho (up, down):  0.000E+00 1.280E-03

     Magnetic moment per site:
     atom:    1    charge:   14.7243    magn:    3.0641    constr:    0.0000
     atom:    2    charge:   14.7243    magn:    3.0641    constr:    0.0000

     total cpu time spent up to now is       39.3 secs

     total energy              =    -658.16114357 Ry
     Harris-Foulkes estimate   =    -658.64730475 Ry
     estimated scf accuracy    <       1.36644169 Ry

     total magnetization       =     6.74 Bohr mag/cell
     absolute magnetization    =     7.02 Bohr mag/cell

     iteration #  4     ecut=    50.00 Ry     beta=0.70
     Davidson diagonalization with overlap
     ethr =  2.68E-03,  avg # of iterations =  2.7

     negative rho (up, down):  0.000E+00 1.050E-03

     Magnetic moment per site:
     atom:    1    charge:   14.7840    magn:    3.0134    constr:    0.0000
     atom:    2    charge:   14.7840    magn:    3.0134    constr:    0.0000

     total cpu time spent up to now is       50.6 secs

     total energy              =    -658.39300556 Ry
     Harris-Foulkes estimate   =    -658.39308651 Ry
     estimated scf accuracy    <       0.00679921 Ry

     total magnetization       =     5.88 Bohr mag/cell
     absolute magnetization    =     6.28 Bohr mag/cell

     iteration #  5     ecut=    50.00 Ry     beta=0.70
     Davidson diagonalization with overlap
     ethr =  2.12E-05,  avg # of iterations =  3.3

     negative rho (up, down):  0.000E+00 1.062E-03

     Magnetic moment per site:
     atom:    1    charge:   14.7734    magn:    3.0173    constr:    0.0000
     atom:    2    charge:   14.7734    magn:    3.0173    constr:    0.0000

     total cpu time spent up to now is       64.9 secs

     total energy              =    -658.40023102 Ry
     Harris-Foulkes estimate   =    -658.39911263 Ry
     estimated scf accuracy    <       0.00081098 Ry

     total magnetization       =     5.87 Bohr mag/cell
     absolute magnetization    =     6.25 Bohr mag/cell

     iteration #  6     ecut=    50.00 Ry     beta=0.70
     Davidson diagonalization with overlap
     ethr =  2.53E-06,  avg # of iterations =  2.2

     negative rho (up, down):  0.000E+00 1.075E-03

     Magnetic moment per site:
     atom:    1    charge:   14.7731    magn:    3.0232    constr:    0.0000
     atom:    2    charge:   14.7731    magn:    3.0232    constr:    0.0000

     total cpu time spent up to now is       75.4 secs

     total energy              =    -658.39974650 Ry
     Harris-Foulkes estimate   =    -658.40050101 Ry
     estimated scf accuracy    <       0.00064599 Ry

     total magnetization       =     5.85 Bohr mag/cell
     absolute magnetization    =     6.23 Bohr mag/cell

     iteration #  7     ecut=    50.00 Ry     beta=0.70
     Davidson diagonalization with overlap
     ethr =  2.02E-06,  avg # of iterations =  1.4

     negative rho (up, down):  0.000E+00 1.023E-03

     Magnetic moment per site:
     atom:    1    charge:   14.7717    magn:    3.0040    constr:    0.0000
     atom:    2    charge:   14.7717    magn:    3.0040    constr:    0.0000

     total cpu time spent up to now is       85.1 secs

     total energy              =    -658.40116173 Ry
     Harris-Foulkes estimate   =    -658.39977438 Ry
     estimated scf accuracy    <       0.00147660 Ry

     total magnetization       =     5.85 Bohr mag/cell
     absolute magnetization    =     6.23 Bohr mag/cell

     iteration #  8     ecut=    50.00 Ry     beta=0.70
     Davidson diagonalization with overlap
     ethr =  2.02E-06,  avg # of iterations =  2.7

     negative rho (up, down):  0.000E+00 1.032E-03

     Magnetic moment per site:
     atom:    1    charge:   14.7738    magn:    3.0053    constr:    0.0000
     atom:    2    charge:   14.7738    magn:    3.0053    constr:    0.0000

     total cpu time spent up to now is       96.8 secs

     total energy              =    -658.40153537 Ry
     Harris-Foulkes estimate   =    -658.40165754 Ry
     estimated scf accuracy    <       0.00020286 Ry

     total magnetization       =     5.82 Bohr mag/cell
     absolute magnetization    =     6.18 Bohr mag/cell

     iteration #  9     ecut=    50.00 Ry     beta=0.70
     Davidson diagonalization with overlap
     ethr =  6.34E-07,  avg # of iterations =  1.6

     negative rho (up, down):  0.000E+00 1.020E-03

     Magnetic moment per site:
     atom:    1    charge:   14.7750    magn:    2.9925    constr:    0.0000
     atom:    2    charge:   14.7750    magn:    2.9925    constr:    0.0000

     total cpu time spent up to now is      106.6 secs

     total energy              =    -658.40186921 Ry
     Harris-Foulkes estimate   =    -658.40155096 Ry
     estimated scf accuracy    <       0.00052126 Ry

     total magnetization       =     5.82 Bohr mag/cell
     absolute magnetization    =     6.18 Bohr mag/cell

     iteration # 10     ecut=    50.00 Ry     beta=0.70
     Davidson diagonalization with overlap
     ethr =  6.34E-07,  avg # of iterations =  2.2

     negative rho (up, down):  0.000E+00 1.011E-03

     Magnetic moment per site:
     atom:    1    charge:   14.7756    magn:    2.9849    constr:    0.0000
     atom:    2    charge:   14.7756    magn:    2.9849    constr:    0.0000

     total cpu time spent up to now is      116.6 secs

     total energy              =    -658.40201962 Ry
     Harris-Foulkes estimate   =    -658.40193195 Ry
     estimated scf accuracy    <       0.00017383 Ry

     total magnetization       =     5.81 Bohr mag/cell
     absolute magnetization    =     6.16 Bohr mag/cell

     iteration # 11     ecut=    50.00 Ry     beta=0.70
     Davidson diagonalization with overlap
     ethr =  5.43E-07,  avg # of iterations =  1.8

     negative rho (up, down):  0.000E+00 1.007E-03

     Magnetic moment per site:
     atom:    1    charge:   14.7758    magn:    2.9820    constr:    0.0000
     atom:    2    charge:   14.7758    magn:    2.9820    constr:    0.0000

     total cpu time spent up to now is      126.4 secs

     total energy              =    -658.40207271 Ry
     Harris-Foulkes estimate   =    -658.40204995 Ry
     estimated scf accuracy    <       0.00005479 Ry

     total magnetization       =     5.80 Bohr mag/cell
     absolute magnetization    =     6.15 Bohr mag/cell

     iteration # 12     ecut=    50.00 Ry     beta=0.70
     Davidson diagonalization with overlap
     ethr =  1.71E-07,  avg # of iterations =  2.2

     negative rho (up, down):  0.000E+00 9.928E-04

     Magnetic moment per site:
     atom:    1    charge:   14.7771    magn:    2.9682    constr:    0.0000
     atom:    2    charge:   14.7771    magn:    2.9682    constr:    0.0000

     total cpu time spent up to now is      136.1 secs

     total energy              =    -658.40197317 Ry
     Harris-Foulkes estimate   =    -658.40208050 Ry
     estimated scf accuracy    <       0.00003484 Ry

     total magnetization       =     5.80 Bohr mag/cell
     absolute magnetization    =     6.15 Bohr mag/cell

     iteration # 13     ecut=    50.00 Ry     beta=0.70
     Davidson diagonalization with overlap
     ethr =  1.09E-07,  avg # of iterations =  3.4

     negative rho (up, down):  0.000E+00 9.978E-04

     Magnetic moment per site:
     atom:    1    charge:   14.7766    magn:    2.9731    constr:    0.0000
     atom:    2    charge:   14.7766    magn:    2.9731    constr:    0.0000

     total cpu time spent up to now is      150.2 secs

     total energy              =    -658.40211369 Ry
     Harris-Foulkes estimate   =    -658.40202375 Ry
     estimated scf accuracy    <       0.00002553 Ry

     total magnetization       =     5.79 Bohr mag/cell
     absolute magnetization    =     6.13 Bohr mag/cell

     iteration # 14     ecut=    50.00 Ry     beta=0.70
     Davidson diagonalization with overlap
     ethr =  7.98E-08,  avg # of iterations =  2.1

     negative rho (up, down):  0.000E+00 9.985E-04

     Magnetic moment per site:
     atom:    1    charge:   14.7766    magn:    2.9738    constr:    0.0000
     atom:    2    charge:   14.7766    magn:    2.9738    constr:    0.0000

     total cpu time spent up to now is      162.9 secs

     total energy              =    -658.40211806 Ry
     Harris-Foulkes estimate   =    -658.40211785 Ry
     estimated scf accuracy    <       0.00000025 Ry

     total magnetization       =     5.79 Bohr mag/cell
     absolute magnetization    =     6.13 Bohr mag/cell

     iteration # 15     ecut=    50.00 Ry     beta=0.70
     Davidson diagonalization with overlap
     ethr =  7.92E-10,  avg # of iterations =  3.7

     negative rho (up, down):  0.000E+00 9.970E-04

     Magnetic moment per site:
     atom:    1    charge:   14.7767    magn:    2.9722    constr:    0.0000
     atom:    2    charge:   14.7767    magn:    2.9722    constr:    0.0000

     total cpu time spent up to now is      177.9 secs

     total energy              =    -658.40211874 Ry
     Harris-Foulkes estimate   =    -658.40211827 Ry
     estimated scf accuracy    <       0.00000170 Ry

     total magnetization       =     5.79 Bohr mag/cell
     absolute magnetization    =     6.13 Bohr mag/cell

     iteration # 16     ecut=    50.00 Ry     beta=0.70
     Davidson diagonalization with overlap
     ethr =  7.92E-10,  avg # of iterations =  3.3

     negative rho (up, down):  0.000E+00 9.970E-04

     Magnetic moment per site:
     atom:    1    charge:   14.7768    magn:    2.9721    constr:    0.0000
     atom:    2    charge:   14.7768    magn:    2.9721    constr:    0.0000

     total cpu time spent up to now is      190.4 secs

     End of self-consistent calculation

 ------ SPIN UP ------------


          k = 0.0000 0.0000 0.0000 (  1461 PWs)   bands (ev):

   -78.0316 -78.0251 -44.1011 -44.1011 -44.0938 -44.0938 -43.9891 -43.9326
     3.8007   6.8400   8.0936   8.0936   8.2085   8.2085   8.2651   8.2651
     8.3788   8.6922   8.6922  10.0037

          k = 0.0000 0.0000 0.1149 (  1467 PWs)   bands (ev):

   -78.0310 -78.0260 -44.1005 -44.1005 -44.0948 -44.0948 -43.9847 -43.9374
     4.0530   6.6209   8.0505   8.0505   8.1672   8.1672   8.3447   8.3608
     8.3608   8.6827   8.6827   9.0684

          k = 0.0000 0.0000 0.2299 (  1444 PWs)   bands (ev):

   -78.0291 -78.0273 -44.0985 -44.0985 -44.0964 -44.0964 -43.9700 -43.9517
     4.7745   5.8016   8.0358   8.0358   8.0867   8.0867   8.2861   8.3765
     8.5124   8.5124   8.6292   8.6292

          k = 0.0000 0.1155 0.0000 (  1459 PWs)   bands (ev):

   -78.0308 -78.0246 -44.1079 -44.1033 -44.1007 -44.0955 -43.9870 -43.9326
     4.0590   7.0075   8.0085   8.1407   8.1586   8.1872   8.2198   8.2948
     8.3457   8.4647   8.7044  10.6658

          k = 0.0000 0.1155 0.1149 (  1454 PWs)   bands (ev):

   -78.0300 -78.0252 -44.1072 -44.1023 -44.1015 -44.0962 -43.9823 -43.9374
     4.3068   6.8059   7.9798   8.0300   8.1137   8.1967   8.2433   8.3201
     8.3571   8.5043   8.6924   9.6641

          k = 0.0000 0.1155 0.2299 (  1444 PWs)   bands (ev):

   -78.0282 -78.0266 -44.1056 -44.1034 -44.1003 -44.0978 -43.9688 -43.9511
     5.0142   6.0150   7.9351   7.9617   8.1019   8.1594   8.1884   8.2348
     8.5123   8.6335   8.6472   8.9267

          k = 0.0000 0.2309 0.0000 (  1455 PWs)   bands (ev):

   -78.0283 -78.0231 -44.1252 -44.1182 -44.1083 -44.0991 -43.9819 -43.9340
     4.7993   7.3340   7.6537   7.9079   8.0772   8.1137   8.1385   8.4420
     8.5281   8.6874   8.7238  11.9387

          k = 0.0000 0.2309 0.1149 (  1444 PWs)   bands (ev):

   -78.0277 -78.0234 -44.1246 -44.1189 -44.1071 -44.0998 -43.9770 -43.9383
     5.0273   7.1707   7.6348   7.8835   8.0557   8.1354   8.1887   8.4399
     8.5075   8.7127   8.7212  10.5017

          k = 0.0000 0.2309 0.2299 (  1453 PWs)   bands (ev):

   -78.0264 -78.0249 -44.1233 -44.1210 -44.1053 -44.1024 -43.9650 -43.9500
     5.6643   6.5208   7.7137   7.8241   8.0955   8.1669   8.2069   8.3237
     8.5894   8.6779   8.8715   9.3618

          k = 0.0000 0.3464 0.0000 (  1457 PWs)   bands (ev):

   -78.0256 -78.0213 -44.1467 -44.1397 -44.1145 -44.1038 -43.9736 -43.9365
     5.8639   7.2506   7.2944   7.9404   7.9742   7.9974   8.3548   8.7340
     8.7781   8.8338   9.0748  13.5196

          k = 0.0000 0.3464 0.1149 (  1456 PWs)   bands (ev):

   -78.0252 -78.0216 -44.1464 -44.1407 -44.1132 -44.1047 -43.9700 -43.9401
     6.0128   7.1277   7.3970   7.7447   8.0528   8.2414   8.3863   8.6178
     8.7968   8.8664   9.0433  11.4890

          k = 0.0000 0.3464 0.2299 (  1451 PWs)   bands (ev):

   -78.0240 -78.0227 -44.1448 -44.1423 -44.1109 -44.1075 -43.9602 -43.9488
     6.3892   6.8142   7.5540   7.6657   8.2050   8.4135   8.4656   8.5322
     8.8331   8.8665   9.1107   9.9190

          k = 0.0000 0.4619 0.0000 (  1468 PWs)   bands (ev):

   -78.0232 -78.0203 -44.1641 -44.1571 -44.1193 -44.1076 -43.9663 -43.9408
     6.6920   7.0142   7.1116   7.8464   7.9106   8.3043   8.6801   8.7357
     9.0625   9.1058   9.8219  13.9180

          k = 0.0000 0.4619 0.1149 (  1458 PWs)   bands (ev):

   -78.0228 -78.0204 -44.1639 -44.1577 -44.1179 -44.1089 -43.9632 -43.9427
     6.6232   7.0082   7.2688   7.6063   7.9794   8.6037   8.6412   8.8944
     9.0697   9.1088   9.7371  12.6392

          k = 0.0000 0.4619 0.2299 (  1457 PWs)   bands (ev):

   -78.0220 -78.0211 -44.1625 -44.1601 -44.1151 -44.1118 -43.9561 -43.9483
     6.6498   6.8289   7.4462   7.5083   8.1670   8.4171   8.9585   9.0867
     9.1034   9.3136   9.8143  10.9869

          k = 0.0000-0.5774 0.0000 (  1476 PWs)   bands (ev):

   -78.0223 -78.0199 -44.1713 -44.1636 -44.1209 -44.1093 -43.9624 -43.9436
     6.9051   6.9375   7.0059   7.7981   7.8787   8.6571   8.7353   8.7570
     9.1708   9.2202  11.0280  12.1235

          k = 0.0000-0.5774 0.1149 (  1460 PWs)   bands (ev):

   -78.0218 -78.0199 -44.1705 -44.1643 -44.1196 -44.1107 -43.9597 -43.9443
     6.6916   6.9839   7.2458   7.5567   7.9515   8.6420   8.7444   9.1422
     9.1771   9.2161  10.9925  12.0515

          k = 0.0000-0.5774 0.2299 (  1464 PWs)   bands (ev):

   -78.0212 -78.0207 -44.1690 -44.1671 -44.1169 -44.1133 -43.9546 -43.9484
     6.6634   6.8207   7.4260   7.4300   8.1498   8.4122   9.0794   9.1907
     9.2051   9.4229  11.1598  11.7176

          k = 0.1000 0.1732 0.0000 (  1452 PWs)   bands (ev):

   -78.0290 -78.0236 -44.1188 -44.1135 -44.1054 -44.0990 -43.9839 -43.9335
     4.5599   7.2852   7.8067   7.8709   8.0619   8.0850   8.2565   8.3924
     8.4292   8.6349   8.7076  11.5626

          k = 0.1000 0.1732 0.1149 (  1451 PWs)   bands (ev):

   -78.0284 -78.0241 -44.1184 -44.1142 -44.1053 -44.0998 -43.9788 -43.9379
     4.7963   7.1071   7.7376   7.8650   8.0797   8.1233   8.2111   8.3792
     8.4639   8.6574   8.7062  10.2704

          k = 0.1000 0.1732 0.2299 (  1447 PWs)   bands (ev):

   -78.0270 -78.0254 -44.1170 -44.1154 -44.1038 -44.1017 -43.9660 -43.9502
     5.4632   6.3876   7.7704   7.8475   8.0863   8.1273   8.2009   8.2819
     8.5736   8.6652   8.8097   9.2440

          k = 0.1000 0.2887 0.0000 (  1454 PWs)   bands (ev):

   -78.0265 -78.0219 -44.1369 -44.1320 -44.1125 -44.1046 -43.9772 -43.9354
     5.4851   7.4011   7.4742   7.8035   7.9132   8.0876   8.1434   8.6470
     8.7051   8.7586   8.9842  12.9344

          k = 0.1000 0.2887 0.1149 (  1453 PWs)   bands (ev):

   -78.0260 -78.0223 -44.1364 -44.1324 -44.1121 -44.1055 -43.9728 -43.9392
     5.6788   7.2503   7.5332   7.7791   7.9876   8.1010   8.1422   8.5491
     8.7532   8.7965   8.9798  11.1327

          k = 0.1000 0.2887 0.2299 (  1445 PWs)   bands (ev):

   -78.0247 -78.0233 -44.1353 -44.1334 -44.1101 -44.1076 -43.9617 -43.9489
     6.1969   6.8146   7.6489   7.7507   8.0606   8.1147   8.2148   8.3812
     8.8644   8.9056   9.0208   9.7150

          k = 0.1000 0.4041 0.0000 (  1457 PWs)   bands (ev):

   -78.0239 -78.0204 -44.1555 -44.1492 -44.1196 -44.1099 -43.9689 -43.9390
     6.5200   7.1211   7.2892   7.8134   7.9439   7.9926   8.4021   8.7003
     8.9168   9.1100   9.5634  14.3172

          k = 0.1000 0.4041 0.1149 (  1459 PWs)   bands (ev):

   -78.0236 -78.0207 -44.1550 -44.1501 -44.1189 -44.1109 -43.9655 -43.9419
     6.5573   7.1024   7.3635   7.6617   7.9880   8.2536   8.4223   8.6034
     8.9528   9.1601   9.5324  12.2955

          k = 0.1000 0.4041 0.2299 (  1456 PWs)   bands (ev):

   -78.0226 -78.0216 -44.1540 -44.1520 -44.1167 -44.1136 -43.9574 -43.9482
     6.6924   6.9124   7.5271   7.6264   8.1052   8.3278   8.5198   8.5408
     9.1376   9.2719   9.6137  10.6109

          k = 0.1000 0.5196 0.0000 (  1458 PWs)   bands (ev):

   -78.0219 -78.0197 -44.1672 -44.1599 -44.1240 -44.1132 -43.9621 -43.9430
     6.9784   6.9847   7.1335   7.7879   7.8659   8.3789   8.6027   8.6955
     9.1431   9.2839  10.7200  13.0567

          k = 0.1000 0.5196 0.1149 (  1455 PWs)   bands (ev):

   -78.0217 -78.0199 -44.1668 -44.1610 -44.1228 -44.1140 -43.9598 -43.9444
     6.7756   7.0887   7.3129   7.5728   7.8932   8.5646   8.6526   8.7082
     9.1536   9.3492  10.7472  12.8373

          k = 0.1000 0.5196 0.2299 (  1460 PWs)   bands (ev):

   -78.0211 -78.0206 -44.1654 -44.1634 -44.1205 -44.1168 -43.9545 -43.9484
     6.7577   6.9179   7.4734   7.5175   8.0467   8.3268   8.8409   8.8917
     9.2427   9.4126  11.0590  11.9273

          k = 0.2000 0.3464 0.0000 (  1452 PWs)   bands (ev):

   -78.0240 -78.0206 -44.1474 -44.1468 -44.1212 -44.1138 -43.9698 -43.9381
     6.4661   7.1954   7.5589   7.6463   7.7573   8.0548   8.1835   8.6605
     8.8122   9.1580   9.5435  14.3011

          k = 0.2000 0.3464 0.1149 (  1455 PWs)   bands (ev):

   -78.0237 -78.0209 -44.1476 -44.1470 -44.1206 -44.1146 -43.9663 -43.9412
     6.5578   7.1460   7.5703   7.7002   7.8823   8.0219   8.1747   8.5516
     8.8927   9.1982   9.5455  12.1792

          k = 0.2000 0.3464 0.2299 (  1457 PWs)   bands (ev):

   -78.0228 -78.0219 -44.1478 -44.1472 -44.1193 -44.1167 -43.9582 -43.9481
     6.7741   6.9971   7.6482   7.7355   8.0344   8.0448   8.1891   8.3427
     9.1716   9.2656   9.6565  10.5433

          k = 0.2000 0.4619 0.0000 (  1460 PWs)   bands (ev):

   -78.0219 -78.0199 -44.1588 -44.1539 -44.1305 -44.1220 -43.9621 -43.9427
     7.0769   7.2031   7.4087   7.7035   7.8276   7.9024   8.3836   8.6256
     9.0264   9.3540  10.5585  14.7712

          k = 0.2000 0.4619 0.1149 (  1462 PWs)   bands (ev):

   -78.0217 -78.0201 -44.1584 -44.1545 -44.1301 -44.1229 -43.9599 -43.9442
     6.9980   7.2339   7.4457   7.6560   7.8443   8.0733   8.3924   8.5328
     9.0853   9.3892  10.6402  13.5960

          k = 0.2000 0.4619 0.2299 (  1460 PWs)   bands (ev):

   -78.0211 -78.0206 -44.1573 -44.1560 -44.1281 -44.1253 -43.9543 -43.9483
     6.9888   7.0976   7.5798   7.7120   7.8831   8.1135   8.4213   8.4280
     9.2759   9.4114  11.0282  12.0239

          k = 0.2000 0.5774 0.0000 (  1460 PWs)   bands (ev):

   -78.0209 -78.0197 -44.1630 -44.1558 -44.1350 -44.1248 -43.9577 -43.9460
     7.0401   7.3157   7.3421   7.7496   7.7753   8.0659   8.4821   8.6128
     9.1644   9.3588  12.0752  12.7067

          k = 0.2000 0.5774 0.1149 (  1463 PWs)   bands (ev):

   -78.0208 -78.0199 -44.1625 -44.1566 -44.1343 -44.1260 -43.9562 -43.9464
     6.9798   7.3435   7.4800   7.5635   7.7497   8.2288   8.5122   8.5381
     9.2000   9.3978  12.2350  12.7652

          k = 0.2000 0.5774 0.2299 (  1465 PWs)   bands (ev):

   -78.0205 -78.0202 -44.1611 -44.1588 -44.1319 -44.1288 -43.9527 -43.9487
     6.9930   7.1537   7.5717   7.6856   7.7867   8.1037   8.5467   8.5651
     9.3147   9.4188  12.6510  12.8767

          k = 0.3000 0.5196 0.0000 (  1456 PWs)   bands (ev):

   -78.0204 -78.0197 -44.1566 -44.1511 -44.1418 -44.1345 -43.9549 -43.9477
     7.0905   7.5168   7.6543   7.6836   7.6922   7.7710   8.3722   8.5701
     9.1833   9.3447  12.2047  14.4054

          k = 0.3000 0.5196 0.1149 (  1463 PWs)   bands (ev):

   -78.0204 -78.0198 -44.1555 -44.1513 -44.1420 -44.1359 -43.9539 -43.9482
     7.1384   7.4255   7.5885   7.5954   7.8279   7.8993   8.3600   8.4807
     9.2322   9.3751  12.3799  14.4255

          k = 0.3000 0.5196 0.2299 (  1474 PWs)   bands (ev):

   -78.0204 -78.0201 -44.1541 -44.1526 -44.1413 -44.1388 -43.9515 -43.9492
     7.2293   7.3033   7.5678   7.5954   7.8984   7.9655   8.3403   8.3564
     9.3429   9.4042  12.9147  13.8176

 ------ SPIN DOWN ----------


          k = 0.0000 0.0000 0.0000 (  1461 PWs)   bands (ev):

   -74.6359 -74.6286 -40.7531 -40.7531 -40.7449 -40.7449 -40.7285 -40.6609
     4.0643   7.7994   9.9932  10.1111  10.7552  10.7552  10.9158  10.9158
    11.9951  11.9951  12.5684  12.5684

          k = 0.0000 0.0000 0.1149 (  1467 PWs)   bands (ev):

   -74.6350 -74.6295 -40.7525 -40.7525 -40.7459 -40.7459 -40.7226 -40.6669
     4.3175   7.3051   9.8050   9.9368  10.7531  10.7531  10.8854  10.8854
    12.0688  12.0688  12.5307  12.5307

          k = 0.0000 0.0000 0.2299 (  1444 PWs)   bands (ev):

   -74.6331 -74.6310 -40.7502 -40.7502 -40.7478 -40.7478 -40.7054 -40.6840
     5.0500   6.1549   9.6904   9.8014  10.7681  10.7681  10.8200  10.8200
    12.2400  12.2400  12.4154  12.4154

          k = 0.0000 0.1155 0.0000 (  1459 PWs)   bands (ev):

   -74.6347 -74.6279 -40.7611 -40.7555 -40.7529 -40.7468 -40.7260 -40.6611
     4.3233   7.9995  10.0088  10.0332  10.6747  10.8376  10.8687  11.0210
    11.8839  11.9253  12.5890  12.9325

          k = 0.0000 0.1155 0.1149 (  1454 PWs)   bands (ev):

   -74.6340 -74.6286 -40.7605 -40.7545 -40.7539 -40.7476 -40.7200 -40.6669
     4.5740   7.5255   9.7604   9.9820  10.6581  10.8168  10.8644  10.9899
    11.9723  12.0086  12.5414  12.6680

          k = 0.0000 0.1155 0.2299 (  1444 PWs)   bands (ev):

   -74.6322 -74.6302 -40.7588 -40.7562 -40.7523 -40.7494 -40.7036 -40.6831
     5.2992   6.3924   9.6967   9.8394  10.6658  10.7358  10.8757  10.9250
    12.1879  12.2013  12.4027  12.4277

          k = 0.0000 0.2309 0.0000 (  1455 PWs)   bands (ev):

   -74.6321 -74.6262 -40.7816 -40.7735 -40.7614 -40.7509 -40.7196 -40.6628
     5.0762   8.5139   9.8280  10.0524  10.4941  10.7597  11.1822  11.3070
    11.6377  11.7651  12.6214  13.8247

          k = 0.0000 0.2309 0.1149 (  1444 PWs)   bands (ev):

   -74.6314 -74.6266 -40.7812 -40.7746 -40.7602 -40.7518 -40.7136 -40.6678
     5.3179   8.1154   9.6649  10.0526  10.4439  10.7041  11.1689  11.2733
    11.7636  11.8730  12.5517  12.9731

          k = 0.0000 0.2309 0.2299 (  1453 PWs)   bands (ev):

   -74.6300 -74.6282 -40.7800 -40.7773 -40.7579 -40.7546 -40.6990 -40.6814
     6.0152   7.0624   9.7112   9.9310  10.4225  10.5574  11.1686  11.2111
    12.0725  12.1100  12.3630  12.4554

          k = 0.0000 0.3464 0.0000 (  1457 PWs)   bands (ev):

   -74.6289 -74.6241 -40.8070 -40.7988 -40.7686 -40.7565 -40.7100 -40.6660
     6.2405   9.0092   9.7206   9.9503  10.2894  11.0458  11.3393  11.5924
    11.6082  11.6865  12.6383  14.6869

          k = 0.0000 0.3464 0.1149 (  1456 PWs)   bands (ev):

   -74.6284 -74.6245 -40.8069 -40.8002 -40.7673 -40.7575 -40.7053 -40.6699
     6.4583   8.7882   9.5802  10.0471  10.2209  10.8246  11.5332  11.5758
    11.6466  11.7794  12.5437  13.3658

          k = 0.0000 0.3464 0.2299 (  1451 PWs)   bands (ev):

   -74.6272 -74.6257 -40.8056 -40.8027 -40.7645 -40.7607 -40.6932 -40.6798
     7.0832   7.9796   9.6944   9.9730  10.2521  10.5222  11.5424  11.5948
    11.9732  12.0234  12.3064  12.5100

          k = 0.0000 0.4619 0.0000 (  1468 PWs)   bands (ev):

   -74.6261 -74.6228 -40.8276 -40.8192 -40.7743 -40.7609 -40.7009 -40.6708
     7.5844   9.0806   9.6974   9.7934  10.3246  11.0831  11.4649  11.6656
    11.9820  12.0310  12.6416  14.6691

          k = 0.0000 0.4619 0.1149 (  1458 PWs)   bands (ev):

   -74.6257 -74.6230 -40.8276 -40.8204 -40.7728 -40.7623 -40.6971 -40.6729
     7.7412   9.0235   9.5507   9.9468  10.2928  11.0803  11.5485  11.7001
    11.9990  12.0136  12.5214  13.7396

          k = 0.0000 0.4619 0.2299 (  1457 PWs)   bands (ev):

   -74.6248 -74.6238 -40.8264 -40.8236 -40.7696 -40.7657 -40.6884 -40.6792
     8.1556   8.6687   9.6377   9.8627  10.4890  10.8584  11.7623  11.9468
    11.9872  12.0629  12.2524  12.6426

          k = 0.0000-0.5774 0.0000 (  1476 PWs)   bands (ev):

   -74.6250 -74.6223 -40.8359 -40.8269 -40.7763 -40.7628 -40.6963 -40.6740
     8.4090   8.9296   9.6654   9.7047  10.3842  10.9783  11.4182  12.1235
    12.1835  12.3929  12.6411  13.4630

          k = 0.0000-0.5774 0.1149 (  1460 PWs)   bands (ev):

   -74.6246 -74.6224 -40.8354 -40.8281 -40.7749 -40.7643 -40.6930 -40.6750
     8.4714   8.9201   9.6069   9.7951  10.3859  11.2398  11.5145  12.1259
    12.1551  12.1794  12.5029  13.2855

          k = 0.0000-0.5774 0.2299 (  1464 PWs)   bands (ev):

   -74.6239 -74.6232 -40.8342 -40.8317 -40.7717 -40.7674 -40.6865 -40.6793
     8.6276   8.8120   9.6445   9.8020  10.6791  11.3147  11.7798  12.0646
    12.0952  12.1707  12.2087  12.7463

          k = 0.1000 0.1732 0.0000 (  1452 PWs)   bands (ev):

   -74.6328 -74.6267 -40.7740 -40.7682 -40.7583 -40.7508 -40.7218 -40.6622
     4.8297   8.3621   9.8733  10.0604  10.5829  10.6938  11.0919  11.2321
    11.6718  11.8595  12.5953  13.5541

          k = 0.1000 0.1732 0.1149 (  1451 PWs)   bands (ev):

   -74.6323 -74.6273 -40.7737 -40.7690 -40.7580 -40.7517 -40.7157 -40.6675
     5.0749   7.9344   9.6921  10.0414  10.5112  10.6928  11.0791  11.1960
    11.8141  11.9281  12.5331  12.8939

          k = 0.1000 0.1732 0.2299 (  1447 PWs)   bands (ev):

   -74.6307 -74.6288 -40.7725 -40.7706 -40.7564 -40.7539 -40.7002 -40.6817
     5.7822   6.8499   9.7098   9.9079  10.4830  10.5892  11.0842  11.1308
    12.1151  12.1285  12.3611  12.4598

          k = 0.1000 0.2887 0.0000 (  1454 PWs)   bands (ev):

   -74.6300 -74.6248 -40.7953 -40.7897 -40.7665 -40.7574 -40.7139 -40.6646
     5.7944   8.9066   9.7598   9.9474  10.4357  10.7387  11.4028  11.4666
    11.6071  11.6929  12.5936  14.6165

          k = 0.1000 0.2887 0.1149 (  1453 PWs)   bands (ev):

   -74.6295 -74.6253 -40.7952 -40.7905 -40.7660 -40.7584 -40.7084 -40.6689
     6.0239   8.6060   9.6133  10.0034  10.3669  10.6244  11.4048  11.5270
    11.6547  11.8163  12.5107  13.2570

          k = 0.1000 0.2887 0.2299 (  1445 PWs)   bands (ev):

   -74.6281 -74.6265 -40.7944 -40.7922 -40.7637 -40.7609 -40.6950 -40.6801
     6.6872   7.6653   9.7252  10.0085  10.2225  10.4232  11.4215  11.4891
    12.0198  12.0430  12.2992  12.5236

          k = 0.1000 0.4041 0.0000 (  1457 PWs)   bands (ev):

   -74.6269 -74.6231 -40.8173 -40.8101 -40.7749 -40.7635 -40.7041 -40.6689
     7.0796   9.1951   9.7326   9.8046  10.3395  11.1549  11.1599  11.4871
    11.8269  12.0506  12.5874  15.0899

          k = 0.1000 0.4041 0.1149 (  1459 PWs)   bands (ev):

   -74.6266 -74.6234 -40.8172 -40.8113 -40.7740 -40.7648 -40.6998 -40.6718
     7.2714   9.1108   9.5590   9.9525  10.2505  10.8426  11.4631  11.5271
    11.9252  12.0080  12.4962  13.7987

          k = 0.1000 0.4041 0.2299 (  1456 PWs)   bands (ev):

   -74.6255 -74.6244 -40.8164 -40.8140 -40.7715 -40.7678 -40.6899 -40.6791
     7.8083   8.5367   9.6860   9.9662  10.2098  10.5059  11.6135  11.8289
    11.9539  12.1097  12.3248  12.7264

          k = 0.1000 0.5196 0.0000 (  1458 PWs)   bands (ev):

   -74.6247 -74.6222 -40.8312 -40.8226 -40.7800 -40.7674 -40.6961 -40.6735
     8.2852   9.1006   9.6511   9.7576  10.4251  11.0005  11.3528  11.7252
    11.9876  12.5614  12.5806  14.1836

          k = 0.1000 0.5196 0.1149 (  1455 PWs)   bands (ev):

   -74.6245 -74.6224 -40.8310 -40.8241 -40.7788 -40.7685 -40.6930 -40.6749
     8.3874   9.0921   9.5716   9.8911  10.3603  11.0196  11.4571  11.7522
    12.0171  12.3223  12.6370  13.8734

          k = 0.1000 0.5196 0.2299 (  1460 PWs)   bands (ev):

   -74.6238 -74.6232 -40.8299 -40.8273 -40.7760 -40.7718 -40.6863 -40.6792
     8.6432   8.9292   9.6653   9.8820  10.4786  10.8477  11.6960  11.9032
    11.9327  12.1073  12.6982  13.1687

          k = 0.2000 0.3464 0.0000 (  1452 PWs)   bands (ev):

   -74.6271 -74.6232 -40.8078 -40.8074 -40.7766 -40.7681 -40.7052 -40.6680
     6.9002   9.3148   9.7186   9.7686  10.4730  10.8112  11.1646  11.5122
    11.7656  12.0857  12.5300  15.1908

          k = 0.2000 0.3464 0.1149 (  1455 PWs)   bands (ev):

   -74.6268 -74.6236 -40.8083 -40.8078 -40.7761 -40.7692 -40.7008 -40.6712
     7.1044   9.2298   9.5727   9.7878  10.4836  10.5253  11.3929  11.4754
    11.9439  12.0154  12.4667  13.8453

          k = 0.2000 0.3464 0.2299 (  1457 PWs)   bands (ev):

   -74.6257 -74.6247 -40.8090 -40.8084 -40.7746 -40.7717 -40.6906 -40.6789
     7.6840   8.5035   9.7513   9.9700  10.1393  10.2771  11.5203  11.7977
    11.9646  12.1127  12.3765  12.8011

          k = 0.2000 0.4619 0.0000 (  1460 PWs)   bands (ev):

   -74.6247 -74.6223 -40.8213 -40.8155 -40.7876 -40.7777 -40.6962 -40.6733
     8.1439   9.3718   9.5842   9.8551  10.5633  11.0117  11.1660  11.2629
    11.8484  12.4798  12.6992  15.5966

          k = 0.2000 0.4619 0.1149 (  1462 PWs)   bands (ev):

   -74.6245 -74.6226 -40.8210 -40.8164 -40.7872 -40.7789 -40.6931 -40.6747
     8.2941   9.4414   9.5493   9.8390  10.4396  10.7391  11.2343  11.4723
    11.9806  12.2336  12.8140  14.7398

          k = 0.2000 0.4619 0.2299 (  1460 PWs)   bands (ev):

   -74.6239 -74.6232 -40.8202 -40.8186 -40.7851 -40.7819 -40.6860 -40.6790
     8.6934   9.1797   9.7195   9.9369  10.1774  10.3643  11.4328  11.8074
    11.8779  12.0850  13.0196  13.6153

          k = 0.2000 0.5774 0.0000 (  1460 PWs)   bands (ev):

   -74.6236 -74.6221 -40.8262 -40.8176 -40.7929 -40.7811 -40.6910 -40.6771
     8.8579   9.2787   9.4854   9.9159  10.6230  10.9662  11.1303  11.5871
    11.6635  12.4611  13.4920  14.1302

          k = 0.2000 0.5774 0.1149 (  1463 PWs)   bands (ev):

   -74.6234 -74.6223 -40.8258 -40.8189 -40.7922 -40.7825 -40.6888 -40.6774
     8.9464   9.3152   9.5307   9.9710  10.4437  10.7785  11.2497  11.6604
    11.8001  12.2338  13.6256  14.1305

          k = 0.2000 0.5774 0.2299 (  1465 PWs)   bands (ev):

   -74.6231 -74.6227 -40.8246 -40.8220 -40.7896 -40.7860 -40.6839 -40.6794
     9.1425   9.2947   9.7392  10.0401  10.2083  10.4559  11.4683  11.7897
    11.8341  11.9419  13.8842  14.0841

          k = 0.3000 0.5196 0.0000 (  1456 PWs)   bands (ev):

   -74.6230 -74.6221 -40.8184 -40.8119 -40.8011 -40.7925 -40.6878 -40.6792
     9.0171   9.3859   9.4774  10.0268  10.8327  10.9415  11.0093  11.2717
    11.6053  12.4021  13.7389  15.3829

          k = 0.3000 0.5196 0.1149 (  1463 PWs)   bands (ev):

   -74.6229 -74.6222 -40.8174 -40.8127 -40.8015 -40.7942 -40.6861 -40.6793
     9.1362   9.4758   9.5386   9.9786  10.6133  10.6524  11.0298  11.5232
    11.7668  12.1661  13.9051  15.3695

          k = 0.3000 0.5196 0.2299 (  1474 PWs)   bands (ev):

   -74.6229 -74.6226 -40.8161 -40.8146 -40.8008 -40.7977 -40.6826 -40.6800
     9.4272   9.6218   9.7316   9.9388  10.1293  10.2450  11.2948  11.7107
    11.7968  11.8907  14.3149  14.9467

     the Fermi energy is    10.5802 ev

!    total energy              =    -658.40211962 Ry
     Harris-Foulkes estimate   =    -658.40211932 Ry
     estimated scf accuracy    <          9.1E-09 Ry

     total all-electron energy =     -5090.995191 Ry

     The total energy is the sum of the following terms:

     one-electron contribution =    -301.14899382 Ry
     hartree contribution      =     162.43334183 Ry
     xc contribution           =     -69.40132829 Ry
     ewald contribution        =    -298.00767835 Ry
     one-center paw contrib.   =    -152.27716730 Ry
     smearing contrib. (-TS)   =      -0.00029370 Ry

     total magnetization       =     5.79 Bohr mag/cell
     absolute magnetization    =     6.13 Bohr mag/cell

     convergence has been achieved in  16 iterations

     Forces acting on atoms (Ry/au):


     negative rho (up, down):  0.000E+00 9.970E-04
     atom    1 type  1   force =    -0.00000000    0.00000000    0.00000000
     atom    2 type  1   force =     0.00000000    0.00000000    0.00000000

     Total force =     0.000000     Total SCF correction =     0.000000


     entering subroutine stress ...


     negative rho (up, down):  0.000E+00 9.970E-04
          total   stress  (Ry/bohr**3)                   (kbar)     P= -292.06
  -0.00209682  -0.00000000   0.00000000       -308.45     -0.00      0.00
  -0.00000000  -0.00209682   0.00000000         -0.00   -308.45      0.00
   0.00000000   0.00000000  -0.00176241          0.00      0.00   -259.26


     Writing output data file Fe_hcp.save

     init_run     :      6.42s CPU      6.89s WALL (       1 calls)
     electrons    :    182.55s CPU    183.07s WALL (       1 calls)
     forces       :      1.07s CPU      1.02s WALL (       1 calls)
     stress       :      2.92s CPU      3.13s WALL (       1 calls)

     Called by init_run:
     wfcinit      :      4.25s CPU      4.36s WALL (       1 calls)
     potinit      :      1.38s CPU      1.58s WALL (       1 calls)

     Called by electrons:
     c_bands      :    138.29s CPU    135.73s WALL (      16 calls)
     sum_band     :     23.16s CPU     24.02s WALL (      16 calls)
     v_of_rho     :      1.17s CPU      1.29s WALL (      17 calls)
     newd         :      1.65s CPU      1.91s WALL (      17 calls)
     mix_rho      :      0.20s CPU      0.27s WALL (      16 calls)

     Called by c_bands:
     init_us_2    :      1.99s CPU      2.16s WALL (    2940 calls)
     cegterg      :    132.73s CPU    129.73s WALL (    1344 calls)

     Called by *egterg:
     h_psi        :    105.99s CPU    108.99s WALL (    4723 calls)
     s_psi        :      4.88s CPU      3.13s WALL (    4723 calls)
     g_psi        :      0.59s CPU      0.64s WALL (    3295 calls)
     cdiaghg      :      5.22s CPU      5.57s WALL (    4639 calls)

     Called by h_psi:
     add_vuspsi   :      5.24s CPU      3.37s WALL (    4723 calls)

     General routines
     calbec       :      7.63s CPU      4.72s WALL (    6235 calls)
     fft          :      0.72s CPU      0.78s WALL (     561 calls)
     ffts         :      0.05s CPU      0.07s WALL (      66 calls)
     fftw         :    101.31s CPU    108.61s WALL (  165448 calls)
     interpolate  :      0.15s CPU      0.19s WALL (      66 calls)
     davcio       :      0.00s CPU      0.05s WALL (      84 calls)


     PAW routines
     PAW_pot      :     19.41s CPU     21.33s WALL (      17 calls)
     PAW_symme    :      0.02s CPU      0.03s WALL (      33 calls)

     PWSCF        :  3m13.56s CPU     3m14.91s WALL


   This run was terminated on:  23: 3:37  11May2015            

=------------------------------------------------------------------------------=
   JOB DONE.
=------------------------------------------------------------------------------=
