
     Program PWSCF v.5.1.2 starts on 11May2015 at 21:16:25 

     This program is part of the open-source Quantum ESPRESSO suite
     for quantum simulation of materials; please cite
         "P. Giannozzi et al., J. Phys.:Condens. Matter 21 395502 (2009);
          URL http://www.quantum-espresso.org", 
     in publications or presentations arising from this work. More details at
     http://www.quantum-espresso.org/quote

     Serial version
     Reading input from Fe_HCP_5.42_174_9_5.pw.in

     Current dimensions of program PWSCF are:
     Max number of different atomic species (ntypx) = 10
     Max number of k-points (npk) =  40000
     Max angular momentum in pseudopotentials (lmaxx) =  3
               file Fe.pbe-spn-kjpaw_psl.0.2.1.UPF: wavefunction(s)  3D renormalized

     G-vector sticks info
     --------------------
     sticks:   dense  smooth     PW     G-vecs:    dense   smooth      PW
     Sum         511     409    121                16085    11455    1979

     Generating pointlists ...
     new r_m :   0.4125 (alat units)  2.2358 (a.u.) for type    1


     bravais-lattice index     =            4
     lattice parameter (alat)  =       5.4200  a.u.
     unit-cell volume          =     239.9262 (a.u.)^3
     number of atoms/cell      =            2
     number of atomic types    =            1
     number of electrons       =        32.00
     number of Kohn-Sham states=           20
     kinetic-energy cutoff     =      50.0000  Ry
     charge density cutoff     =     250.0000  Ry
     convergence threshold     =      1.0E-08
     mixing beta               =       0.7000
     number of iterations used =            8  plain     mixing
     Exchange-correlation      =  SLA  PW   PBX  PBC ( 1  4  3  4 0 0)

     celldm(1)=   5.420000  celldm(2)=   0.000000  celldm(3)=   1.740000
     celldm(4)=   0.000000  celldm(5)=   0.000000  celldm(6)=   0.000000

     crystal axes: (cart. coord. in units of alat)
               a(1) = (   1.000000   0.000000   0.000000 )  
               a(2) = (  -0.500000   0.866025   0.000000 )  
               a(3) = (   0.000000   0.000000   1.740000 )  

     reciprocal axes: (cart. coord. in units 2 pi/alat)
               b(1) = (  1.000000  0.577350 -0.000000 )  
               b(2) = (  0.000000  1.154701  0.000000 )  
               b(3) = (  0.000000 -0.000000  0.574713 )  


     PseudoPot. # 1 for Fe read from file:
     ./Fe.pbe-spn-kjpaw_psl.0.2.1.UPF
     MD5 check sum: a0a08122d52b112de96d1da1d7dd020f
     Pseudo is Projector augmented-wave + core cor, Zval = 16.0
     Generated using "atomic" code by A. Dal Corso  v.5.0.2 svn rev. 9415
     Shape of augmentation charge: PSQ
     Using radial grid of 1191 points,  6 beta functions with: 
                l(1) =   0
                l(2) =   0
                l(3) =   1
                l(4) =   1
                l(5) =   2
                l(6) =   2
     Q(r) pseudized with 0 coefficients 


     atomic species   valence    mass     pseudopotential
        Fe            16.00    55.85000     Fe( 1.00)

     Starting magnetic structure 
     atomic species   magnetization
        Fe           0.700

     24 Sym. Ops., with inversion, found (12 have fractional translation)



   Cartesian axes

     site n.     atom                  positions (alat units)
         1           Fe  tau(   1) = (  -0.0000000   0.5773503   0.4350000  )
         2           Fe  tau(   2) = (   0.5000000   0.2886751   1.3050000  )

     number of k points=    72  Marzari-Vanderbilt smearing, width (Ry)=  0.0250
                       cart. coord. in units 2pi/alat
        k(    1) = (   0.0000000   0.0000000   0.0000000), wk =   0.0024691
        k(    2) = (   0.0000000   0.0000000   0.1149425), wk =   0.0049383
        k(    3) = (   0.0000000   0.0000000   0.2298851), wk =   0.0049383
        k(    4) = (   0.0000000   0.1283001   0.0000000), wk =   0.0148148
        k(    5) = (   0.0000000   0.1283001   0.1149425), wk =   0.0296296
        k(    6) = (   0.0000000   0.1283001   0.2298851), wk =   0.0296296
        k(    7) = (   0.0000000   0.2566001   0.0000000), wk =   0.0148148
        k(    8) = (   0.0000000   0.2566001   0.1149425), wk =   0.0296296
        k(    9) = (   0.0000000   0.2566001   0.2298851), wk =   0.0296296
        k(   10) = (   0.0000000   0.3849002   0.0000000), wk =   0.0148148
        k(   11) = (   0.0000000   0.3849002   0.1149425), wk =   0.0296296
        k(   12) = (   0.0000000   0.3849002   0.2298851), wk =   0.0296296
        k(   13) = (   0.0000000   0.5132002   0.0000000), wk =   0.0148148
        k(   14) = (   0.0000000   0.5132002   0.1149425), wk =   0.0296296
        k(   15) = (   0.0000000   0.5132002   0.2298851), wk =   0.0296296
        k(   16) = (   0.1111111   0.1924501   0.0000000), wk =   0.0148148
        k(   17) = (   0.1111111   0.1924501   0.1149425), wk =   0.0296296
        k(   18) = (   0.1111111   0.1924501   0.2298851), wk =   0.0296296
        k(   19) = (   0.1111111   0.3207501   0.0000000), wk =   0.0296296
        k(   20) = (   0.1111111   0.3207501   0.1149425), wk =   0.0592593
        k(   21) = (   0.1111111   0.3207501   0.2298851), wk =   0.0592593
        k(   22) = (   0.1111111   0.4490502   0.0000000), wk =   0.0296296
        k(   23) = (   0.1111111   0.4490502   0.1149425), wk =   0.0592593
        k(   24) = (   0.1111111   0.4490502   0.2298851), wk =   0.0592593
        k(   25) = (   0.1111111   0.5773503   0.0000000), wk =   0.0148148
        k(   26) = (   0.1111111   0.5773503   0.1149425), wk =   0.0296296
        k(   27) = (   0.1111111   0.5773503   0.2298851), wk =   0.0296296
        k(   28) = (   0.2222222   0.3849002   0.0000000), wk =   0.0148148
        k(   29) = (   0.2222222   0.3849002   0.1149425), wk =   0.0296296
        k(   30) = (   0.2222222   0.3849002   0.2298851), wk =   0.0296296
        k(   31) = (   0.2222222   0.5132002   0.0000000), wk =   0.0296296
        k(   32) = (   0.2222222   0.5132002   0.1149425), wk =   0.0592593
        k(   33) = (   0.2222222   0.5132002   0.2298851), wk =   0.0592593
        k(   34) = (   0.3333333   0.5773503   0.0000000), wk =   0.0049383
        k(   35) = (   0.3333333   0.5773503   0.1149425), wk =   0.0098765
        k(   36) = (   0.3333333   0.5773503   0.2298851), wk =   0.0098765
        k(   37) = (   0.0000000   0.0000000   0.0000000), wk =   0.0024691
        k(   38) = (   0.0000000   0.0000000   0.1149425), wk =   0.0049383
        k(   39) = (   0.0000000   0.0000000   0.2298851), wk =   0.0049383
        k(   40) = (   0.0000000   0.1283001   0.0000000), wk =   0.0148148
        k(   41) = (   0.0000000   0.1283001   0.1149425), wk =   0.0296296
        k(   42) = (   0.0000000   0.1283001   0.2298851), wk =   0.0296296
        k(   43) = (   0.0000000   0.2566001   0.0000000), wk =   0.0148148
        k(   44) = (   0.0000000   0.2566001   0.1149425), wk =   0.0296296
        k(   45) = (   0.0000000   0.2566001   0.2298851), wk =   0.0296296
        k(   46) = (   0.0000000   0.3849002   0.0000000), wk =   0.0148148
        k(   47) = (   0.0000000   0.3849002   0.1149425), wk =   0.0296296
        k(   48) = (   0.0000000   0.3849002   0.2298851), wk =   0.0296296
        k(   49) = (   0.0000000   0.5132002   0.0000000), wk =   0.0148148
        k(   50) = (   0.0000000   0.5132002   0.1149425), wk =   0.0296296
        k(   51) = (   0.0000000   0.5132002   0.2298851), wk =   0.0296296
        k(   52) = (   0.1111111   0.1924501   0.0000000), wk =   0.0148148
        k(   53) = (   0.1111111   0.1924501   0.1149425), wk =   0.0296296
        k(   54) = (   0.1111111   0.1924501   0.2298851), wk =   0.0296296
        k(   55) = (   0.1111111   0.3207501   0.0000000), wk =   0.0296296
        k(   56) = (   0.1111111   0.3207501   0.1149425), wk =   0.0592593
        k(   57) = (   0.1111111   0.3207501   0.2298851), wk =   0.0592593
        k(   58) = (   0.1111111   0.4490502   0.0000000), wk =   0.0296296
        k(   59) = (   0.1111111   0.4490502   0.1149425), wk =   0.0592593
        k(   60) = (   0.1111111   0.4490502   0.2298851), wk =   0.0592593
        k(   61) = (   0.1111111   0.5773503   0.0000000), wk =   0.0148148
        k(   62) = (   0.1111111   0.5773503   0.1149425), wk =   0.0296296
        k(   63) = (   0.1111111   0.5773503   0.2298851), wk =   0.0296296
        k(   64) = (   0.2222222   0.3849002   0.0000000), wk =   0.0148148
        k(   65) = (   0.2222222   0.3849002   0.1149425), wk =   0.0296296
        k(   66) = (   0.2222222   0.3849002   0.2298851), wk =   0.0296296
        k(   67) = (   0.2222222   0.5132002   0.0000000), wk =   0.0296296
        k(   68) = (   0.2222222   0.5132002   0.1149425), wk =   0.0592593
        k(   69) = (   0.2222222   0.5132002   0.2298851), wk =   0.0592593
        k(   70) = (   0.3333333   0.5773503   0.0000000), wk =   0.0049383
        k(   71) = (   0.3333333   0.5773503   0.1149425), wk =   0.0098765
        k(   72) = (   0.3333333   0.5773503   0.2298851), wk =   0.0098765

     Dense  grid:    16085 G-vectors     FFT dimensions: (  27,  27,  48)

     Smooth grid:    11455 G-vectors     FFT dimensions: (  25,  25,  45)

     Largest allocated arrays     est. size (Mb)     dimensions
        Kohn-Sham Wavefunctions         0.44 Mb     (    1452,   20)
        NL pseudopotentials             0.80 Mb     (    1452,   36)
        Each V/rho on FFT grid          1.07 Mb     (   34992,   2)
        Each G-vector array             0.12 Mb     (   16085)
        G-vector shells                 0.01 Mb     (     839)
     Largest temporary arrays     est. size (Mb)     dimensions
        Auxiliary wavefunctions         1.77 Mb     (    1452,   80)
        Each subspace H/S matrix        0.10 Mb     (      80,   80)
        Each <psi_i|beta_j> matrix      0.01 Mb     (      36,   20)
        Arrays for rho mixing           4.27 Mb     (   34992,    8)

     Check: negative/imaginary core charge=   -0.000322    0.000000

     Initial potential from superposition of free atoms

     starting charge   31.99912, renormalised to   32.00000
     Starting wfc are   26 randomized atomic wfcs

     total cpu time spent up to now is        5.1 secs

     Self-consistent Calculation

     iteration #  1     ecut=    50.00 Ry     beta=0.70
     Davidson diagonalization with overlap
     ethr =  1.00E-02,  avg # of iterations =  2.0

     negative rho (up, down):  0.000E+00 1.091E-03

     Magnetic moment per site:
     atom:    1    charge:   14.6018    magn:    5.9454    constr:    0.0000
     atom:    2    charge:   14.6018    magn:    5.9454    constr:    0.0000

     total cpu time spent up to now is       12.5 secs

     total energy              =    -657.96252396 Ry
     Harris-Foulkes estimate   =    -656.24893588 Ry
     estimated scf accuracy    <       2.83767239 Ry

     total magnetization       =     8.00 Bohr mag/cell
     absolute magnetization    =     8.28 Bohr mag/cell

     iteration #  2     ecut=    50.00 Ry     beta=0.70
     Davidson diagonalization with overlap
     ethr =  8.87E-03,  avg # of iterations =  1.6

     negative rho (up, down):  0.000E+00 1.072E-03

     Magnetic moment per site:
     atom:    1    charge:   14.8278    magn:    4.0373    constr:    0.0000
     atom:    2    charge:   14.8278    magn:    4.0373    constr:    0.0000

     total cpu time spent up to now is       19.4 secs

     total energy              =    -658.13558654 Ry
     Harris-Foulkes estimate   =    -658.17762490 Ry
     estimated scf accuracy    <       0.83244304 Ry

     total magnetization       =     6.61 Bohr mag/cell
     absolute magnetization    =     6.88 Bohr mag/cell

     iteration #  3     ecut=    50.00 Ry     beta=0.70
     Davidson diagonalization with overlap
     ethr =  2.60E-03,  avg # of iterations =  3.1

     negative rho (up, down):  0.000E+00 1.259E-03

     Magnetic moment per site:
     atom:    1    charge:   14.7128    magn:    3.0633    constr:    0.0000
     atom:    2    charge:   14.7128    magn:    3.0633    constr:    0.0000

     total cpu time spent up to now is       27.4 secs

     total energy              =    -658.17001063 Ry
     Harris-Foulkes estimate   =    -658.64437279 Ry
     estimated scf accuracy    <       1.33049973 Ry

     total magnetization       =     6.69 Bohr mag/cell
     absolute magnetization    =     6.96 Bohr mag/cell

     iteration #  4     ecut=    50.00 Ry     beta=0.70
     Davidson diagonalization with overlap
     ethr =  2.60E-03,  avg # of iterations =  2.7

     negative rho (up, down):  0.000E+00 1.076E-03

     Magnetic moment per site:
     atom:    1    charge:   14.7655    magn:    3.0763    constr:    0.0000
     atom:    2    charge:   14.7655    magn:    3.0763    constr:    0.0000

     total cpu time spent up to now is       35.1 secs

     total energy              =    -658.40159834 Ry
     Harris-Foulkes estimate   =    -658.40171863 Ry
     estimated scf accuracy    <       0.00624488 Ry

     total magnetization       =     6.00 Bohr mag/cell
     absolute magnetization    =     6.33 Bohr mag/cell

     iteration #  5     ecut=    50.00 Ry     beta=0.70
     Davidson diagonalization with overlap
     ethr =  1.95E-05,  avg # of iterations =  3.4

     negative rho (up, down):  0.000E+00 1.072E-03

     Magnetic moment per site:
     atom:    1    charge:   14.7600    magn:    3.0740    constr:    0.0000
     atom:    2    charge:   14.7600    magn:    3.0740    constr:    0.0000

     total cpu time spent up to now is       45.4 secs

     total energy              =    -658.40813336 Ry
     Harris-Foulkes estimate   =    -658.40730431 Ry
     estimated scf accuracy    <       0.00076272 Ry

     total magnetization       =     6.03 Bohr mag/cell
     absolute magnetization    =     6.33 Bohr mag/cell

     iteration #  6     ecut=    50.00 Ry     beta=0.70
     Davidson diagonalization with overlap
     ethr =  2.38E-06,  avg # of iterations =  2.2

     negative rho (up, down):  0.000E+00 1.009E-03

     Magnetic moment per site:
     atom:    1    charge:   14.7596    magn:    3.0583    constr:    0.0000
     atom:    2    charge:   14.7596    magn:    3.0583    constr:    0.0000

     total cpu time spent up to now is       52.4 secs

     total energy              =    -658.40499729 Ry
     Harris-Foulkes estimate   =    -658.40834056 Ry
     estimated scf accuracy    <       0.00049333 Ry

     total magnetization       =     6.02 Bohr mag/cell
     absolute magnetization    =     6.32 Bohr mag/cell

     iteration #  7     ecut=    50.00 Ry     beta=0.70
     Davidson diagonalization with overlap
     ethr =  1.54E-06,  avg # of iterations =  3.5

     negative rho (up, down):  0.000E+00 1.049E-03

     Magnetic moment per site:
     atom:    1    charge:   14.7597    magn:    3.0695    constr:    0.0000
     atom:    2    charge:   14.7597    magn:    3.0695    constr:    0.0000

     total cpu time spent up to now is       62.1 secs

     total energy              =    -658.40889842 Ry
     Harris-Foulkes estimate   =    -658.40634408 Ry
     estimated scf accuracy    <       0.00091818 Ry

     total magnetization       =     6.01 Bohr mag/cell
     absolute magnetization    =     6.27 Bohr mag/cell

     iteration #  8     ecut=    50.00 Ry     beta=0.70
     Davidson diagonalization with overlap
     ethr =  1.54E-06,  avg # of iterations =  2.5

     negative rho (up, down):  0.000E+00 1.047E-03

     Magnetic moment per site:
     atom:    1    charge:   14.7601    magn:    3.0687    constr:    0.0000
     atom:    2    charge:   14.7601    magn:    3.0687    constr:    0.0000

     total cpu time spent up to now is       70.5 secs

     total energy              =    -658.40919699 Ry
     Harris-Foulkes estimate   =    -658.40919196 Ry
     estimated scf accuracy    <       0.00024685 Ry

     total magnetization       =     6.01 Bohr mag/cell
     absolute magnetization    =     6.29 Bohr mag/cell

     iteration #  9     ecut=    50.00 Ry     beta=0.70
     Davidson diagonalization with overlap
     ethr =  7.71E-07,  avg # of iterations =  1.0

     negative rho (up, down):  0.000E+00 1.044E-03

     Magnetic moment per site:
     atom:    1    charge:   14.7606    magn:    3.0645    constr:    0.0000
     atom:    2    charge:   14.7606    magn:    3.0645    constr:    0.0000

     total cpu time spent up to now is       77.2 secs

     total energy              =    -658.40937106 Ry
     Harris-Foulkes estimate   =    -658.40920344 Ry
     estimated scf accuracy    <       0.00023565 Ry

     total magnetization       =     6.01 Bohr mag/cell
     absolute magnetization    =     6.29 Bohr mag/cell

     iteration # 10     ecut=    50.00 Ry     beta=0.70
     Davidson diagonalization with overlap
     ethr =  7.36E-07,  avg # of iterations =  1.5

     negative rho (up, down):  0.000E+00 1.036E-03

     Magnetic moment per site:
     atom:    1    charge:   14.7614    magn:    3.0571    constr:    0.0000
     atom:    2    charge:   14.7614    magn:    3.0571    constr:    0.0000

     total cpu time spent up to now is       84.2 secs

     total energy              =    -658.40935621 Ry
     Harris-Foulkes estimate   =    -658.40939047 Ry
     estimated scf accuracy    <       0.00008034 Ry

     total magnetization       =     6.01 Bohr mag/cell
     absolute magnetization    =     6.28 Bohr mag/cell

     iteration # 11     ecut=    50.00 Ry     beta=0.70
     Davidson diagonalization with overlap
     ethr =  2.51E-07,  avg # of iterations =  2.7

     negative rho (up, down):  0.000E+00 1.035E-03

     Magnetic moment per site:
     atom:    1    charge:   14.7611    magn:    3.0582    constr:    0.0000
     atom:    2    charge:   14.7611    magn:    3.0582    constr:    0.0000

     total cpu time spent up to now is       93.0 secs

     total energy              =    -658.40948022 Ry
     Harris-Foulkes estimate   =    -658.40941747 Ry
     estimated scf accuracy    <       0.00001024 Ry

     total magnetization       =     6.00 Bohr mag/cell
     absolute magnetization    =     6.27 Bohr mag/cell

     iteration # 12     ecut=    50.00 Ry     beta=0.70
     Davidson diagonalization with overlap
     ethr =  3.20E-08,  avg # of iterations =  2.5

     negative rho (up, down):  0.000E+00 1.035E-03

     Magnetic moment per site:
     atom:    1    charge:   14.7609    magn:    3.0574    constr:    0.0000
     atom:    2    charge:   14.7609    magn:    3.0574    constr:    0.0000

     total cpu time spent up to now is      100.5 secs

     total energy              =    -658.40948536 Ry
     Harris-Foulkes estimate   =    -658.40948184 Ry
     estimated scf accuracy    <       0.00000006 Ry

     total magnetization       =     6.00 Bohr mag/cell
     absolute magnetization    =     6.27 Bohr mag/cell

     iteration # 13     ecut=    50.00 Ry     beta=0.70
     Davidson diagonalization with overlap
     ethr =  1.92E-10,  avg # of iterations =  4.2

     negative rho (up, down):  0.000E+00 1.035E-03

     Magnetic moment per site:
     atom:    1    charge:   14.7610    magn:    3.0577    constr:    0.0000
     atom:    2    charge:   14.7610    magn:    3.0577    constr:    0.0000

     total cpu time spent up to now is      112.2 secs

     total energy              =    -658.40948728 Ry
     Harris-Foulkes estimate   =    -658.40948587 Ry
     estimated scf accuracy    <       0.00000002 Ry

     total magnetization       =     6.00 Bohr mag/cell
     absolute magnetization    =     6.27 Bohr mag/cell

     iteration # 14     ecut=    50.00 Ry     beta=0.70
     Davidson diagonalization with overlap
     ethr =  7.46E-11,  avg # of iterations =  2.9

     negative rho (up, down):  0.000E+00 1.035E-03

     Magnetic moment per site:
     atom:    1    charge:   14.7611    magn:    3.0574    constr:    0.0000
     atom:    2    charge:   14.7611    magn:    3.0574    constr:    0.0000

     total cpu time spent up to now is      121.0 secs

     total energy              =    -658.40948730 Ry
     Harris-Foulkes estimate   =    -658.40948731 Ry
     estimated scf accuracy    <       0.00000021 Ry

     total magnetization       =     6.00 Bohr mag/cell
     absolute magnetization    =     6.27 Bohr mag/cell

     iteration # 15     ecut=    50.00 Ry     beta=0.70
     Davidson diagonalization with overlap
     ethr =  7.46E-11,  avg # of iterations =  3.7

     negative rho (up, down):  0.000E+00 1.035E-03

     Magnetic moment per site:
     atom:    1    charge:   14.7611    magn:    3.0573    constr:    0.0000
     atom:    2    charge:   14.7611    magn:    3.0573    constr:    0.0000

     total cpu time spent up to now is      130.3 secs

     End of self-consistent calculation

 ------ SPIN UP ------------


          k = 0.0000 0.0000 0.0000 (  1401 PWs)   bands (ev):

   -77.8848 -77.8778 -43.9431 -43.9431 -43.9354 -43.9354 -43.8510 -43.7904
     3.9283   6.9374   8.2430   8.2430   8.3605   8.3605   8.4668   8.4699
     8.4699   8.9084   8.9084  10.1890

          k = 0.0000 0.0000 0.1149 (  1407 PWs)   bands (ev):

   -77.8840 -77.8787 -43.9429 -43.9429 -43.9367 -43.9367 -43.8454 -43.7954
     4.1839   6.7347   8.2069   8.2069   8.3212   8.3212   8.4329   8.5600
     8.5600   8.8957   8.8957   9.2265

          k = 0.0000 0.0000 0.2299 (  1414 PWs)   bands (ev):

   -77.8824 -77.8804 -43.9409 -43.9409 -43.9388 -43.9388 -43.8311 -43.8118
     4.9099   5.9381   8.1938   8.1938   8.2434   8.2434   8.3762   8.4806
     8.7135   8.7135   8.8359   8.8359

          k = 0.0000 0.1283 0.0000 (  1423 PWs)   bands (ev):

   -77.8839 -77.8773 -43.9524 -43.9465 -43.9453 -43.9379 -43.8487 -43.7908
     4.2493   7.1416   8.1353   8.2944   8.2976   8.3604   8.4132   8.4689
     8.5117   8.5780   8.9233  10.9928

          k = 0.0000 0.1283 0.1149 (  1417 PWs)   bands (ev):

   -77.8831 -77.8780 -43.9518 -43.9459 -43.9455 -43.9388 -43.8435 -43.7960
     4.4989   6.9606   8.1183   8.1545   8.2931   8.3287   8.4189   8.4590
     8.5471   8.6585   8.9067   9.9415

          k = 0.0000 0.1283 0.2299 (  1432 PWs)   bands (ev):

   -77.8816 -77.8798 -43.9506 -43.9483 -43.9441 -43.9413 -43.8290 -43.8109
     5.2078   6.2031   8.0557   8.1003   8.2809   8.2961   8.3373   8.3588
     8.7089   8.8387   8.8391   9.1530

          k = 0.0000 0.2566 0.0000 (  1427 PWs)   bands (ev):

   -77.8809 -77.8756 -43.9747 -43.9671 -43.9530 -43.9428 -43.8416 -43.7926
     5.1584   7.4736   7.7294   8.0470   8.2260   8.2868   8.2994   8.6722
     8.7537   8.8589   8.9444  12.4967

          k = 0.0000 0.2566 0.1149 (  1429 PWs)   bands (ev):

   -77.8804 -77.8762 -43.9743 -43.9683 -43.9521 -43.9438 -43.8371 -43.7972
     5.3786   7.3415   7.7185   8.0147   8.2052   8.3173   8.3537   8.6652
     8.7312   8.8875   8.9383  10.9098

          k = 0.0000 0.2566 0.2299 (  1429 PWs)   bands (ev):

   -77.8791 -77.8775 -43.9724 -43.9702 -43.9498 -43.9466 -43.8243 -43.8091
     5.9883   6.7754   7.8149   7.9429   8.2524   8.3358   8.4070   8.5399
     8.8053   8.8913   9.0739   9.6498

          k = 0.0000 0.3849 0.0000 (  1432 PWs)   bands (ev):

   -77.8775 -77.8737 -43.9992 -43.9920 -43.9602 -43.9481 -43.8321 -43.7963
     6.3549   7.3232   7.3530   8.1183   8.1482   8.1597   8.5910   8.9528
     9.0531   9.1021   9.3875  14.2579

          k = 0.0000 0.3849 0.1149 (  1440 PWs)   bands (ev):

   -77.8774 -77.8741 -43.9992 -43.9930 -43.9590 -43.9497 -43.8285 -43.7998
     6.4452   7.2248   7.4822   7.8477   8.2222   8.5120   8.6706   8.8429
     9.0662   9.1243   9.3274  12.1022

          k = 0.0000 0.3849 0.2299 (  1427 PWs)   bands (ev):

   -77.8762 -77.8749 -43.9978 -43.9951 -43.9560 -43.9526 -43.8186 -43.8079
     6.6803   6.9811   7.6494   7.7533   8.3929   8.6240   8.7936   8.9962
     9.0956   9.1233   9.3529  10.4059

          k = 0.0000 0.5132 0.0000 (  1436 PWs)   bands (ev):

   -77.8751 -77.8726 -44.0161 -44.0081 -43.9645 -43.9519 -43.8237 -43.8006
     6.9738   7.1271   7.1693   8.0035   8.0827   8.6513   8.8550   8.9531
     9.3093   9.3570  10.5603  13.2068

          k = 0.0000 0.5132 0.1149 (  1435 PWs)   bands (ev):

   -77.8749 -77.8728 -44.0156 -44.0090 -43.9632 -43.9531 -43.8212 -43.8029
     6.8234   7.1230   7.4031   7.7343   8.1562   8.8163   8.8565   9.2058
     9.3161   9.3553  10.5125  12.8475

          k = 0.0000 0.5132 0.2299 (  1433 PWs)   bands (ev):

   -77.8742 -77.8734 -44.0139 -44.0115 -43.9603 -43.9563 -43.8145 -43.8076
     6.8071   6.9679   7.5680   7.6048   8.3563   8.6220   9.1635   9.3309
     9.3462   9.5186  10.7438  11.7363

          k = 0.1111 0.1925 0.0000 (  1426 PWs)   bands (ev):

   -77.8818 -77.8761 -43.9667 -43.9616 -43.9502 -43.9431 -43.8439 -43.7918
     4.8683   7.4628   7.8958   7.9709   8.2147   8.2223   8.4420   8.6080
     8.6184   8.8143   8.9234  12.0585

          k = 0.1111 0.1925 0.1149 (  1430 PWs)   bands (ev):

   -77.8814 -77.8767 -43.9662 -43.9620 -43.9496 -43.9440 -43.8391 -43.7969
     5.1012   7.3125   7.8259   7.9761   8.2206   8.2564   8.3940   8.5780
     8.6865   8.8299   8.9222  10.6432

          k = 0.1111 0.1925 0.2299 (  1423 PWs)   bands (ev):

   -77.8798 -77.8781 -43.9647 -43.9631 -43.9481 -43.9461 -43.8257 -43.8094
     5.7576   6.6447   7.8783   7.9708   8.1984   8.2447   8.4008   8.4928
     8.7930   8.8815   9.0071   9.5132

          k = 0.1111 0.3208 0.0000 (  1437 PWs)   bands (ev):

   -77.8788 -77.8743 -43.9882 -43.9828 -43.9590 -43.9503 -43.8357 -43.7949
     5.9721   7.4776   7.5769   7.9357   8.0576   8.2766   8.3054   8.8501
     8.9154   9.0458   9.2817  13.6707

          k = 0.1111 0.3208 0.1149 (  1431 PWs)   bands (ev):

   -77.8783 -77.8746 -43.9877 -43.9831 -43.9582 -43.9510 -43.8314 -43.7987
     6.1400   7.3718   7.6300   7.9030   8.1607   8.2900   8.3005   8.7652
     8.9514   9.0883   9.2748  11.6830

          k = 0.1111 0.3208 0.2299 (  1421 PWs)   bands (ev):

   -77.8770 -77.8756 -43.9865 -43.9845 -43.9561 -43.9534 -43.8204 -43.8081
     6.5667   7.0433   7.7572   7.8744   8.2465   8.2881   8.4052   8.5830
     9.1476   9.2283   9.2708  10.1311

          k = 0.1111 0.4491 0.0000 (  1434 PWs)   bands (ev):

   -77.8757 -77.8728 -44.0074 -44.0005 -43.9668 -43.9557 -43.8263 -43.7997
     6.9577   7.2231   7.3613   7.9734   8.1323   8.2119   8.6109   8.9067
     9.1566   9.3752  10.1263  14.5966

          k = 0.1111 0.4491 0.1149 (  1429 PWs)   bands (ev):

   -77.8754 -77.8730 -44.0070 -44.0015 -43.9658 -43.9569 -43.8231 -43.8015
     6.8890   7.2567   7.4758   7.7760   8.1259   8.5505   8.6509   8.8117
     9.1816   9.4278  10.1275  13.0764

          k = 0.1111 0.4491 0.2299 (  1432 PWs)   bands (ev):

   -77.8747 -77.8738 -44.0060 -44.0039 -43.9633 -43.9598 -43.8155 -43.8076
     6.9161   7.0873   7.6438   7.7346   8.2511   8.5140   8.7809   8.8338
     9.3395   9.4953  10.3768  11.4150

          k = 0.1111 0.5774 0.0000 (  1442 PWs)   bands (ev):

   -77.8746 -77.8724 -44.0156 -44.0076 -43.9698 -43.9586 -43.8210 -43.8031
     7.1409   7.1841   7.2447   7.9832   8.0219   8.5683   8.7235   8.9025
     9.3336   9.4584  11.5762  12.5409

          k = 0.1111 0.5774 0.1149 (  1429 PWs)   bands (ev):

   -77.8742 -77.8724 -44.0151 -44.0084 -43.9688 -43.9593 -43.8183 -43.8040
     6.9456   7.2378   7.4844   7.7258   8.0530   8.7542   8.8041   8.8811
     9.3392   9.5170  11.6383  12.5178

          k = 0.1111 0.5774 0.2299 (  1434 PWs)   bands (ev):

   -77.8736 -77.8731 -44.0136 -44.0112 -43.9661 -43.9624 -43.8133 -43.8077
     6.9249   7.0852   7.6215   7.6608   8.2069   8.5079   9.0095   9.0554
     9.4013   9.5550  11.9291  12.3484

          k = 0.2222 0.3849 0.0000 (  1438 PWs)   bands (ev):

   -77.8760 -77.8730 -43.9978 -43.9972 -43.9699 -43.9624 -43.8271 -43.7991
     7.0320   7.3057   7.6623   7.7687   7.9040   8.1889   8.3943   8.8549
     9.0220   9.4219  10.0876  15.0530

          k = 0.2222 0.3849 0.1149 (  1436 PWs)   bands (ev):

   -77.8757 -77.8732 -43.9979 -43.9976 -43.9696 -43.9632 -43.8237 -43.8014
     7.0437   7.2744   7.6734   7.8383   8.0669   8.1399   8.3883   8.7446
     9.1020   9.4599  10.1270  13.0316

          k = 0.2222 0.3849 0.2299 (  1429 PWs)   bands (ev):

   -77.8748 -77.8739 -43.9981 -43.9981 -43.9679 -43.9653 -43.8157 -43.8074
     7.0995   7.1939   7.7694   7.8889   8.1411   8.2256   8.4045   8.5295
     9.3613   9.5007  10.3904  11.3610

          k = 0.2222 0.5132 0.0000 (  1446 PWs)   bands (ev):

   -77.8740 -77.8726 -44.0070 -44.0004 -43.9809 -43.9712 -43.8188 -43.8048
     7.2332   7.5035   7.5529   7.8887   8.0144   8.0402   8.5635   8.8156
     9.2453   9.5020  11.6210  14.1455

          k = 0.2222 0.5132 0.1149 (  1444 PWs)   bands (ev):

   -77.8738 -77.8726 -44.0065 -44.0011 -43.9801 -43.9725 -43.8167 -43.8053
     7.1950   7.5294   7.5955   7.7823   7.9507   8.2570   8.5809   8.7205
     9.2946   9.5348  11.7608  14.0730

          k = 0.2222 0.5132 0.2299 (  1441 PWs)   bands (ev):

   -77.8734 -77.8729 -44.0049 -44.0031 -43.9783 -43.9751 -43.8121 -43.8078
     7.2098   7.3448   7.7292   7.8669   7.9694   8.2378   8.6140   8.6232
     9.4392   9.5503  12.2477  13.1836

          k = 0.3333 0.5774 0.0000 (  1434 PWs)   bands (ev):

   -77.8727 -77.8727 -44.0004 -43.9925 -43.9925 -43.9844 -43.8109 -43.8109
     7.2689   7.7634   7.7634   7.8169   7.8996   7.8996   8.5178   8.7715
     9.3939   9.3939  13.7753  13.9349

          k = 0.3333 0.5774 0.1149 (  1443 PWs)   bands (ev):

   -77.8727 -77.8727 -43.9990 -43.9931 -43.9931 -43.9860 -43.8104 -43.8104
     7.3420   7.6576   7.6576   7.8055   8.0047   8.0047   8.4993   8.6737
     9.4334   9.4334  14.0660  14.0660

          k = 0.3333 0.5774 0.2299 (  1452 PWs)   bands (ev):

   -77.8728 -77.8728 -43.9953 -43.9940 -43.9940 -43.9899 -43.8095 -43.8095
     7.5295   7.5657   7.5657   7.7225   8.0949   8.0949   8.4708   8.5150
     9.4996   9.4996  14.3987  14.3987

 ------ SPIN DOWN ----------


          k = 0.0000 0.0000 0.0000 (  1401 PWs)   bands (ev):

   -74.4050 -74.3971 -40.5130 -40.5090 -40.5090 -40.5002 -40.5002 -40.4406
     4.2412   8.0282  10.2694  10.3377  11.0023  11.0023  11.1668  11.1668
    12.1933  12.1933  12.7778  12.7778

          k = 0.0000 0.0000 0.1149 (  1407 PWs)   bands (ev):

   -74.4042 -74.3981 -40.5085 -40.5085 -40.5063 -40.5014 -40.5014 -40.4471
     4.4982   7.5265  10.0512  10.2106  10.9990  10.9990  11.1347  11.1347
    12.2698  12.2698  12.7404  12.7404

          k = 0.0000 0.0000 0.2299 (  1414 PWs)   bands (ev):

   -74.4024 -74.4001 -40.5064 -40.5064 -40.5038 -40.5038 -40.4888 -40.4661
     5.2376   6.3566   9.9466  10.0682  11.0129  11.0129  11.0663  11.0663
    12.4459  12.4459  12.6245  12.6245

          k = 0.0000 0.1283 0.0000 (  1423 PWs)   bands (ev):

   -74.4039 -74.3965 -40.5197 -40.5126 -40.5115 -40.5101 -40.5029 -40.4413
     4.5633   8.2769  10.1986  10.3148  10.9059  11.0714  11.1449  11.2988
    12.0577  12.1071  12.8027  13.2345

          k = 0.0000 0.1283 0.1149 (  1417 PWs)   bands (ev):

   -74.4031 -74.3973 -40.5197 -40.5123 -40.5115 -40.5038 -40.5030 -40.4475
     4.8166   7.7968   9.9830  10.2648  10.8815  11.0509  11.1384  11.2657
    12.1537  12.1960  12.7532  12.9217

          k = 0.0000 0.1283 0.2299 (  1432 PWs)   bands (ev):

   -74.4014 -74.3993 -40.5183 -40.5153 -40.5097 -40.5066 -40.4857 -40.4646
     5.5475   6.6515   9.9510  10.1138  10.8851  10.9628  11.1474  11.1976
    12.3859  12.3988  12.6088  12.6460

          k = 0.0000 0.2566 0.0000 (  1427 PWs)   bands (ev):

   -74.4005 -74.3944 -40.5459 -40.5372 -40.5202 -40.5085 -40.5016 -40.4435
     5.4941   8.8828   9.9874  10.2914  10.6932  11.0521  11.5305  11.6490
    11.7653  11.9190  12.8372  14.3263

          k = 0.0000 0.2566 0.1149 (  1429 PWs)   bands (ev):

   -74.4000 -74.3950 -40.5460 -40.5388 -40.5191 -40.5097 -40.4954 -40.4486
     5.7340   8.4976   9.8602  10.3171  10.6342  10.9556  11.5082  11.6105
    11.9195  12.0432  12.7621  13.3095

          k = 0.0000 0.2566 0.2299 (  1429 PWs)   bands (ev):

   -74.3985 -74.3966 -40.5447 -40.5418 -40.5164 -40.5128 -40.4797 -40.4621
     6.4285   7.4652   9.9559  10.2125  10.6022  10.7709  11.5023  11.5461
    12.2648  12.2957  12.5614  12.6963

          k = 0.0000 0.3849 0.0000 (  1432 PWs)   bands (ev):

   -74.3965 -74.3922 -40.5751 -40.5665 -40.5286 -40.5148 -40.4902 -40.4479
     6.8928   9.3139   9.8812  10.1511  10.5318  11.4322  11.5070  11.7331
    12.0192  12.0835  12.8511  15.1755

          k = 0.0000 0.3849 0.1149 (  1440 PWs)   bands (ev):

   -74.3963 -74.3926 -40.5754 -40.5681 -40.5272 -40.5164 -40.4853 -40.4516
     7.0965   9.1478   9.7681  10.2781  10.4472  11.1580  11.7809  11.7983
    12.0412  12.0883  12.7486  13.8024

          k = 0.0000 0.3849 0.2299 (  1427 PWs)   bands (ev):

   -74.3950 -74.3936 -40.5745 -40.5714 -40.5238 -40.5197 -40.4731 -40.4605
     7.6724   8.4714   9.9041  10.1789  10.5424  10.8411  11.8849  11.9828
    12.1985  12.2444  12.5027  12.7937

          k = 0.0000 0.5132 0.0000 (  1436 PWs)   bands (ev):

   -74.3938 -74.3909 -40.5948 -40.5854 -40.5336 -40.5190 -40.4802 -40.4531
     8.3042   9.2335   9.8704   9.9571  10.6393  11.1992  11.6214  12.3457
    12.3571  12.4130  12.8521  14.3484

          k = 0.0000 0.5132 0.1149 (  1435 PWs)   bands (ev):

   -74.3935 -74.3911 -40.5948 -40.5870 -40.5322 -40.5205 -40.4767 -40.4552
     8.4081   9.1967   9.7873  10.0613  10.6317  11.3924  11.7165  12.2172
    12.3624  12.4021  12.7207  13.8918

          k = 0.0000 0.5132 0.2299 (  1433 PWs)   bands (ev):

   -74.3928 -74.3919 -40.5936 -40.5906 -40.5287 -40.5242 -40.4683 -40.4602
     8.6711   8.9842   9.8607  10.0429  10.8776  11.3892  11.9767  12.2885
    12.2896  12.3994  12.4700  12.9944

          k = 0.1111 0.1925 0.0000 (  1426 PWs)   bands (ev):

   -74.4015 -74.3951 -40.5364 -40.5307 -40.5169 -40.5088 -40.5043 -40.4426
     5.1911   8.7142  10.0412  10.3122  10.8332  10.8987  11.4229  11.5645
    11.8040  12.0296  12.8044  14.0002

          k = 0.1111 0.1925 0.1149 (  1430 PWs)   bands (ev):

   -74.4010 -74.3957 -40.5366 -40.5314 -40.5164 -40.5098 -40.4977 -40.4483
     5.4359   8.2916   9.8948  10.3153  10.7224  10.9027  11.4018  11.5213
    11.9740  12.1049  12.7382  13.2117

          k = 0.1111 0.1925 0.2299 (  1423 PWs)   bands (ev):

   -74.3993 -74.3973 -40.5355 -40.5333 -40.5147 -40.5122 -40.4813 -40.4625
     6.1458   7.2110   9.9607  10.1941  10.6626  10.7889  11.4039  11.4530
    12.3099  12.3145  12.5570  12.6978

          k = 0.1111 0.3208 0.0000 (  1437 PWs)   bands (ev):

   -74.3980 -74.3929 -40.5618 -40.5557 -40.5272 -40.5171 -40.4944 -40.4463
     6.3678   9.2979   9.9271  10.1271  10.6497  11.0847  11.5045  11.8254
    11.8602  12.0239  12.7947  15.0880

          k = 0.1111 0.3208 0.1149 (  1431 PWs)   bands (ev):

   -74.3975 -74.3933 -40.5619 -40.5566 -40.5264 -40.5181 -40.4886 -40.4503
     6.5923   9.0425   9.8064  10.1994  10.5880  10.8998  11.6880  11.7563
    11.9962  12.0601  12.7095  13.6881

          k = 0.1111 0.3208 0.2299 (  1421 PWs)   bands (ev):

   -74.3961 -74.3945 -40.5612 -40.5589 -40.5241 -40.5209 -40.4750 -40.4607
     7.2339   8.1668   9.9630  10.2879  10.3865  10.6416  11.7491  11.8685
    12.2286  12.2675  12.5057  12.8111

          k = 0.1111 0.4491 0.0000 (  1434 PWs)   bands (ev):

   -74.3944 -74.3912 -40.5847 -40.5765 -40.5365 -40.5236 -40.4832 -40.4518
     7.8422   9.4313   9.9214   9.9719  10.6511  11.2644  11.5984  11.6303
    12.1962  12.5585  12.7826  15.4361

          k = 0.1111 0.4491 0.1149 (  1429 PWs)   bands (ev):

   -74.3941 -74.3914 -40.5847 -40.5781 -40.5354 -40.5250 -40.4789 -40.4537
     8.0053   9.3914   9.7630  10.1552  10.5510  11.1336  11.6564  11.7838
    12.2684  12.4442  12.7463  14.3606

          k = 0.1111 0.4491 0.2299 (  1432 PWs)   bands (ev):

   -74.3933 -74.3923 -40.5841 -40.5815 -40.5326 -40.5285 -40.4693 -40.4600
     8.4437   8.9984   9.8981  10.1582  10.5502  10.8375  11.8360  12.1126
    12.1683  12.3991  12.7339  13.2246

          k = 0.1111 0.5774 0.0000 (  1442 PWs)   bands (ev):

   -74.3931 -74.3906 -40.5942 -40.5848 -40.5401 -40.5267 -40.4769 -40.4559
     8.7791   9.2774   9.8408   9.9449  10.7282  11.1628  11.5030  12.1538
    12.1969  12.7765  13.1642  14.0675

          k = 0.1111 0.5774 0.1149 (  1429 PWs)   bands (ev):

   -74.3927 -74.3907 -40.5941 -40.5863 -40.5390 -40.5278 -40.4734 -40.4566
     8.8424   9.2781   9.8158  10.0499  10.6498  11.2325  11.6294  12.1801
    12.1931  12.5614  13.1614  13.9557

          k = 0.1111 0.5774 0.2299 (  1434 PWs)   bands (ev):

   -74.3921 -74.3915 -40.5930 -40.5902 -40.5359 -40.5316 -40.4667 -40.4602
     8.9990   9.1806   9.9081  10.1039  10.7385  11.1332  11.9097  12.1482
    12.1967  12.2824  13.2314  13.6062

          k = 0.2222 0.3849 0.0000 (  1438 PWs)   bands (ev):

   -74.3947 -74.3913 -40.5736 -40.5725 -40.5401 -40.5314 -40.4841 -40.4512
     7.6647   9.6484   9.8580   9.9779  10.7708  11.2025  11.2664  11.5916
    12.1186  12.6277  12.7094  15.9577

          k = 0.2222 0.3849 0.1149 (  1436 PWs)   bands (ev):

   -74.3944 -74.3916 -40.5739 -40.5734 -40.5399 -40.5324 -40.4796 -40.4534
     7.8505   9.6795   9.7697   9.9287  10.7508  10.8241  11.5027  11.6786
    12.2671  12.4104  12.7865  14.5506

          k = 0.2222 0.3849 0.2299 (  1429 PWs)   bands (ev):

   -74.3935 -74.3924 -40.5747 -40.5747 -40.5382 -40.5352 -40.4694 -40.4596
     8.3655   9.0693   9.9979  10.1104  10.4465  10.5007  11.6765  12.0399
    12.1714  12.3942  12.8697  13.3806

          k = 0.2222 0.5132 0.0000 (  1446 PWs)   bands (ev):

   -74.3924 -74.3907 -40.5840 -40.5762 -40.5530 -40.5417 -40.4743 -40.4577
     8.9045   9.5915   9.7380  10.0987  10.9248  11.1536  11.3188  11.6105
    12.0428  12.6537  13.4948  15.3076

          k = 0.2222 0.5132 0.1149 (  1444 PWs)   bands (ev):

   -74.3922 -74.3908 -40.5838 -40.5775 -40.5525 -40.5433 -40.4712 -40.4579
     9.0194   9.6595   9.7481  10.1262  10.7322  10.9489  11.3867  11.7864
    12.1601  12.4257  13.6149  15.1716

          k = 0.2222 0.5132 0.2299 (  1441 PWs)   bands (ev):

   -74.3917 -74.3912 -40.5827 -40.5805 -40.5505 -40.5468 -40.4650 -40.4600
     9.3009   9.5775   9.9571  10.2205  10.4105  10.5876  11.6106  11.9828
    12.0893  12.2507  13.9194  14.5176

          k = 0.3333 0.5774 0.0000 (  1434 PWs)   bands (ev):

   -74.3908 -74.3908 -40.5760 -40.5670 -40.5670 -40.5574 -40.4651 -40.4651
     9.4974   9.4974   9.7184  10.2451  11.1219  11.1219  11.1609  11.7053
    11.7053  12.5931  15.0448  15.1775

          k = 0.3333 0.5774 0.1149 (  1443 PWs)   bands (ev):

   -74.3910 -74.3910 -40.5743 -40.5682 -40.5682 -40.5592 -40.4638 -40.4638
     9.6094   9.6094   9.7720  10.2047  10.8466  10.8466  11.2409  11.8896
    11.8896  12.3588  15.2794  15.2794

          k = 0.3333 0.5774 0.2299 (  1452 PWs)   bands (ev):

   -74.3911 -74.3911 -40.5702 -40.5702 -40.5698 -40.5638 -40.4618 -40.4618
     9.9114   9.9114   9.9120  10.0815  10.3926  10.3926  11.4950  11.9036
    12.0751  12.0751  15.5171  15.5171

     the Fermi energy is    10.7875 ev

!    total energy              =    -658.40948750 Ry
     Harris-Foulkes estimate   =    -658.40948740 Ry
     estimated scf accuracy    <          1.6E-09 Ry

     total all-electron energy =     -5091.002559 Ry

     The total energy is the sum of the following terms:

     one-electron contribution =    -298.29300907 Ry
     hartree contribution      =     161.23292021 Ry
     xc contribution           =     -69.41421224 Ry
     ewald contribution        =    -299.65716734 Ry
     one-center paw contrib.   =    -152.27876731 Ry
     smearing contrib. (-TS)   =       0.00074826 Ry

     total magnetization       =     6.00 Bohr mag/cell
     absolute magnetization    =     6.27 Bohr mag/cell

     convergence has been achieved in  15 iterations

     Forces acting on atoms (Ry/au):


     negative rho (up, down):  0.000E+00 1.035E-03
     atom    1 type  1   force =     0.00000000    0.00000000    0.00000000
     atom    2 type  1   force =     0.00000000    0.00000000    0.00000000

     Total force =     0.000000     Total SCF correction =     0.000000


     entering subroutine stress ...


     negative rho (up, down):  0.000E+00 1.035E-03
          total   stress  (Ry/bohr**3)                   (kbar)     P= -287.00
  -0.00201729   0.00000000   0.00000000       -296.75      0.00      0.00
   0.00000000  -0.00201729   0.00000000          0.00   -296.75      0.00
  -0.00000000   0.00000000  -0.00181842         -0.00      0.00   -267.50


     Writing output data file Fe_hcp.save

     init_run     :      4.68s CPU      4.67s WALL (       1 calls)
     electrons    :    132.77s CPU    125.19s WALL (       1 calls)
     forces       :      0.86s CPU      0.69s WALL (       1 calls)
     stress       :      2.29s CPU      2.30s WALL (       1 calls)

     Called by init_run:
     wfcinit      :      2.95s CPU      2.85s WALL (       1 calls)
     potinit      :      1.10s CPU      1.16s WALL (       1 calls)

     Called by electrons:
     c_bands      :    100.34s CPU     92.32s WALL (      15 calls)
     sum_band     :     15.65s CPU     15.39s WALL (      15 calls)
     v_of_rho     :      0.96s CPU      0.99s WALL (      16 calls)
     newd         :      1.20s CPU      1.27s WALL (      16 calls)
     mix_rho      :      0.16s CPU      0.21s WALL (      15 calls)

     Called by c_bands:
     init_us_2    :      1.36s CPU      1.39s WALL (    2376 calls)
     cegterg      :     96.57s CPU     88.48s WALL (    1080 calls)

     Called by *egterg:
     h_psi        :     76.20s CPU     74.10s WALL (    3989 calls)
     s_psi        :      3.54s CPU      2.05s WALL (    3989 calls)
     g_psi        :      0.51s CPU      0.51s WALL (    2837 calls)
     cdiaghg      :      4.26s CPU      4.33s WALL (    3917 calls)

     Called by h_psi:
     add_vuspsi   :      4.01s CPU      2.33s WALL (    3989 calls)

     General routines
     calbec       :      5.43s CPU      3.09s WALL (    5213 calls)
     fft          :      0.56s CPU      0.57s WALL (     530 calls)
     ffts         :      0.04s CPU      0.05s WALL (      62 calls)
     fftw         :     72.56s CPU     73.87s WALL (  140872 calls)
     interpolate  :      0.13s CPU      0.14s WALL (      62 calls)
     davcio       :      0.00s CPU      0.04s WALL (      72 calls)


     PAW routines
     PAW_pot      :     15.55s CPU     16.14s WALL (      16 calls)
     PAW_symme    :      0.02s CPU      0.02s WALL (      31 calls)

     PWSCF        :  2m21.10s CPU     2m13.50s WALL


   This run was terminated on:  21:18:38  11May2015            

=------------------------------------------------------------------------------=
   JOB DONE.
=------------------------------------------------------------------------------=
