
     Program PWSCF v.5.1.2 starts on 11May2015 at 19:49:43 

     This program is part of the open-source Quantum ESPRESSO suite
     for quantum simulation of materials; please cite
         "P. Giannozzi et al., J. Phys.:Condens. Matter 21 395502 (2009);
          URL http://www.quantum-espresso.org", 
     in publications or presentations arising from this work. More details at
     http://www.quantum-espresso.org/quote

     Serial version
     Reading input from Fe_HCP_5.4_173_8_4.pw.in

     Current dimensions of program PWSCF are:
     Max number of different atomic species (ntypx) = 10
     Max number of k-points (npk) =  40000
     Max angular momentum in pseudopotentials (lmaxx) =  3
               file Fe.pbe-spn-kjpaw_psl.0.2.1.UPF: wavefunction(s)  3D renormalized

     G-vector sticks info
     --------------------
     sticks:   dense  smooth     PW     G-vecs:    dense   smooth      PW
     Sum         499     397    121                15713    11191    1979

     Generating pointlists ...
     new r_m :   0.4125 (alat units)  2.2275 (a.u.) for type    1


     bravais-lattice index     =            4
     lattice parameter (alat)  =       5.4000  a.u.
     unit-cell volume          =     235.9163 (a.u.)^3
     number of atoms/cell      =            2
     number of atomic types    =            1
     number of electrons       =        32.00
     number of Kohn-Sham states=           20
     kinetic-energy cutoff     =      50.0000  Ry
     charge density cutoff     =     250.0000  Ry
     convergence threshold     =      1.0E-08
     mixing beta               =       0.7000
     number of iterations used =            8  plain     mixing
     Exchange-correlation      =  SLA  PW   PBX  PBC ( 1  4  3  4 0 0)

     celldm(1)=   5.400000  celldm(2)=   0.000000  celldm(3)=   1.730000
     celldm(4)=   0.000000  celldm(5)=   0.000000  celldm(6)=   0.000000

     crystal axes: (cart. coord. in units of alat)
               a(1) = (   1.000000   0.000000   0.000000 )  
               a(2) = (  -0.500000   0.866025   0.000000 )  
               a(3) = (   0.000000   0.000000   1.730000 )  

     reciprocal axes: (cart. coord. in units 2 pi/alat)
               b(1) = (  1.000000  0.577350 -0.000000 )  
               b(2) = (  0.000000  1.154701  0.000000 )  
               b(3) = (  0.000000 -0.000000  0.578035 )  


     PseudoPot. # 1 for Fe read from file:
     ./Fe.pbe-spn-kjpaw_psl.0.2.1.UPF
     MD5 check sum: a0a08122d52b112de96d1da1d7dd020f
     Pseudo is Projector augmented-wave + core cor, Zval = 16.0
     Generated using "atomic" code by A. Dal Corso  v.5.0.2 svn rev. 9415
     Shape of augmentation charge: PSQ
     Using radial grid of 1191 points,  6 beta functions with: 
                l(1) =   0
                l(2) =   0
                l(3) =   1
                l(4) =   1
                l(5) =   2
                l(6) =   2
     Q(r) pseudized with 0 coefficients 


     atomic species   valence    mass     pseudopotential
        Fe            16.00    55.85000     Fe( 1.00)

     Starting magnetic structure 
     atomic species   magnetization
        Fe           0.700

     24 Sym. Ops., with inversion, found (12 have fractional translation)



   Cartesian axes

     site n.     atom                  positions (alat units)
         1           Fe  tau(   1) = (  -0.0000000   0.5773503   0.4325000  )
         2           Fe  tau(   2) = (   0.5000000   0.2886751   1.2975000  )

     number of k points=    60  Marzari-Vanderbilt smearing, width (Ry)=  0.0250
                       cart. coord. in units 2pi/alat
        k(    1) = (   0.0000000   0.0000000   0.0000000), wk =   0.0039062
        k(    2) = (   0.0000000   0.0000000   0.1445087), wk =   0.0078125
        k(    3) = (   0.0000000   0.0000000  -0.2890173), wk =   0.0039062
        k(    4) = (   0.0000000   0.1443376   0.0000000), wk =   0.0234375
        k(    5) = (   0.0000000   0.1443376   0.1445087), wk =   0.0468750
        k(    6) = (   0.0000000   0.1443376  -0.2890173), wk =   0.0234375
        k(    7) = (   0.0000000   0.2886751   0.0000000), wk =   0.0234375
        k(    8) = (   0.0000000   0.2886751   0.1445087), wk =   0.0468750
        k(    9) = (   0.0000000   0.2886751  -0.2890173), wk =   0.0234375
        k(   10) = (   0.0000000   0.4330127   0.0000000), wk =   0.0234375
        k(   11) = (   0.0000000   0.4330127   0.1445087), wk =   0.0468750
        k(   12) = (   0.0000000   0.4330127  -0.2890173), wk =   0.0234375
        k(   13) = (   0.0000000  -0.5773503   0.0000000), wk =   0.0117188
        k(   14) = (   0.0000000  -0.5773503   0.1445087), wk =   0.0234375
        k(   15) = (   0.0000000  -0.5773503  -0.2890173), wk =   0.0117188
        k(   16) = (   0.1250000   0.2165064   0.0000000), wk =   0.0234375
        k(   17) = (   0.1250000   0.2165064   0.1445087), wk =   0.0468750
        k(   18) = (   0.1250000   0.2165064  -0.2890173), wk =   0.0234375
        k(   19) = (   0.1250000   0.3608439   0.0000000), wk =   0.0468750
        k(   20) = (   0.1250000   0.3608439   0.1445087), wk =   0.0937500
        k(   21) = (   0.1250000   0.3608439  -0.2890173), wk =   0.0468750
        k(   22) = (   0.1250000   0.5051815   0.0000000), wk =   0.0468750
        k(   23) = (   0.1250000   0.5051815   0.1445087), wk =   0.0937500
        k(   24) = (   0.1250000   0.5051815  -0.2890173), wk =   0.0468750
        k(   25) = (   0.2500000   0.4330127   0.0000000), wk =   0.0234375
        k(   26) = (   0.2500000   0.4330127   0.1445087), wk =   0.0468750
        k(   27) = (   0.2500000   0.4330127  -0.2890173), wk =   0.0234375
        k(   28) = (   0.2500000   0.5773503   0.0000000), wk =   0.0234375
        k(   29) = (   0.2500000   0.5773503   0.1445087), wk =   0.0468750
        k(   30) = (   0.2500000   0.5773503  -0.2890173), wk =   0.0234375
        k(   31) = (   0.0000000   0.0000000   0.0000000), wk =   0.0039062
        k(   32) = (   0.0000000   0.0000000   0.1445087), wk =   0.0078125
        k(   33) = (   0.0000000   0.0000000  -0.2890173), wk =   0.0039062
        k(   34) = (   0.0000000   0.1443376   0.0000000), wk =   0.0234375
        k(   35) = (   0.0000000   0.1443376   0.1445087), wk =   0.0468750
        k(   36) = (   0.0000000   0.1443376  -0.2890173), wk =   0.0234375
        k(   37) = (   0.0000000   0.2886751   0.0000000), wk =   0.0234375
        k(   38) = (   0.0000000   0.2886751   0.1445087), wk =   0.0468750
        k(   39) = (   0.0000000   0.2886751  -0.2890173), wk =   0.0234375
        k(   40) = (   0.0000000   0.4330127   0.0000000), wk =   0.0234375
        k(   41) = (   0.0000000   0.4330127   0.1445087), wk =   0.0468750
        k(   42) = (   0.0000000   0.4330127  -0.2890173), wk =   0.0234375
        k(   43) = (   0.0000000  -0.5773503   0.0000000), wk =   0.0117188
        k(   44) = (   0.0000000  -0.5773503   0.1445087), wk =   0.0234375
        k(   45) = (   0.0000000  -0.5773503  -0.2890173), wk =   0.0117188
        k(   46) = (   0.1250000   0.2165064   0.0000000), wk =   0.0234375
        k(   47) = (   0.1250000   0.2165064   0.1445087), wk =   0.0468750
        k(   48) = (   0.1250000   0.2165064  -0.2890173), wk =   0.0234375
        k(   49) = (   0.1250000   0.3608439   0.0000000), wk =   0.0468750
        k(   50) = (   0.1250000   0.3608439   0.1445087), wk =   0.0937500
        k(   51) = (   0.1250000   0.3608439  -0.2890173), wk =   0.0468750
        k(   52) = (   0.1250000   0.5051815   0.0000000), wk =   0.0468750
        k(   53) = (   0.1250000   0.5051815   0.1445087), wk =   0.0937500
        k(   54) = (   0.1250000   0.5051815  -0.2890173), wk =   0.0468750
        k(   55) = (   0.2500000   0.4330127   0.0000000), wk =   0.0234375
        k(   56) = (   0.2500000   0.4330127   0.1445087), wk =   0.0468750
        k(   57) = (   0.2500000   0.4330127  -0.2890173), wk =   0.0234375
        k(   58) = (   0.2500000   0.5773503   0.0000000), wk =   0.0234375
        k(   59) = (   0.2500000   0.5773503   0.1445087), wk =   0.0468750
        k(   60) = (   0.2500000   0.5773503  -0.2890173), wk =   0.0234375

     Dense  grid:    15713 G-vectors     FFT dimensions: (  27,  27,  48)

     Smooth grid:    11191 G-vectors     FFT dimensions: (  25,  25,  45)

     Largest allocated arrays     est. size (Mb)     dimensions
        Kohn-Sham Wavefunctions         0.44 Mb     (    1426,   20)
        NL pseudopotentials             0.78 Mb     (    1426,   36)
        Each V/rho on FFT grid          1.07 Mb     (   34992,   2)
        Each G-vector array             0.12 Mb     (   15713)
        G-vector shells                 0.01 Mb     (     824)
     Largest temporary arrays     est. size (Mb)     dimensions
        Auxiliary wavefunctions         1.74 Mb     (    1426,   80)
        Each subspace H/S matrix        0.10 Mb     (      80,   80)
        Each <psi_i|beta_j> matrix      0.01 Mb     (      36,   20)
        Arrays for rho mixing           4.27 Mb     (   34992,    8)

     Check: negative/imaginary core charge=   -0.000319    0.000000

     Initial potential from superposition of free atoms

     starting charge   31.99912, renormalised to   32.00000
     Starting wfc are   26 randomized atomic wfcs

     total cpu time spent up to now is        4.5 secs

     Self-consistent Calculation

     iteration #  1     ecut=    50.00 Ry     beta=0.70
     Davidson diagonalization with overlap
     ethr =  1.00E-02,  avg # of iterations =  1.9

     negative rho (up, down):  0.000E+00 1.067E-03

     Magnetic moment per site:
     atom:    1    charge:   14.6020    magn:    5.9381    constr:    0.0000
     atom:    2    charge:   14.6020    magn:    5.9381    constr:    0.0000

     total cpu time spent up to now is       10.9 secs

     total energy              =    -657.96814946 Ry
     Harris-Foulkes estimate   =    -656.24477291 Ry
     estimated scf accuracy    <       2.84361038 Ry

     total magnetization       =     8.00 Bohr mag/cell
     absolute magnetization    =     8.24 Bohr mag/cell

     iteration #  2     ecut=    50.00 Ry     beta=0.70
     Davidson diagonalization with overlap
     ethr =  8.89E-03,  avg # of iterations =  1.6

     negative rho (up, down):  0.000E+00 1.051E-03

     Magnetic moment per site:
     atom:    1    charge:   14.8255    magn:    4.0076    constr:    0.0000
     atom:    2    charge:   14.8255    magn:    4.0076    constr:    0.0000

     total cpu time spent up to now is       16.4 secs

     total energy              =    -658.14997196 Ry
     Harris-Foulkes estimate   =    -658.18067573 Ry
     estimated scf accuracy    <       0.81975776 Ry

     total magnetization       =     6.59 Bohr mag/cell
     absolute magnetization    =     6.87 Bohr mag/cell

     iteration #  3     ecut=    50.00 Ry     beta=0.70
     Davidson diagonalization with overlap
     ethr =  2.56E-03,  avg # of iterations =  3.0

     negative rho (up, down):  0.000E+00 1.234E-03

     Magnetic moment per site:
     atom:    1    charge:   14.7107    magn:    3.0689    constr:    0.0000
     atom:    2    charge:   14.7107    magn:    3.0689    constr:    0.0000

     total cpu time spent up to now is       23.1 secs

     total energy              =    -658.18037741 Ry
     Harris-Foulkes estimate   =    -658.64958695 Ry
     estimated scf accuracy    <       1.29819260 Ry

     total magnetization       =     6.73 Bohr mag/cell
     absolute magnetization    =     6.98 Bohr mag/cell

     iteration #  4     ecut=    50.00 Ry     beta=0.70
     Davidson diagonalization with overlap
     ethr =  2.56E-03,  avg # of iterations =  2.7

     negative rho (up, down):  0.000E+00 1.002E-03

     Magnetic moment per site:
     atom:    1    charge:   14.7723    magn:    2.9813    constr:    0.0000
     atom:    2    charge:   14.7723    magn:    2.9813    constr:    0.0000

     total cpu time spent up to now is       29.5 secs

     total energy              =    -658.40619945 Ry
     Harris-Foulkes estimate   =    -658.40646213 Ry
     estimated scf accuracy    <       0.00707586 Ry

     total magnetization       =     5.87 Bohr mag/cell
     absolute magnetization    =     6.24 Bohr mag/cell

     iteration #  5     ecut=    50.00 Ry     beta=0.70
     Davidson diagonalization with overlap
     ethr =  2.21E-05,  avg # of iterations =  3.2

     negative rho (up, down):  0.000E+00 1.014E-03

     Magnetic moment per site:
     atom:    1    charge:   14.7596    magn:    2.9897    constr:    0.0000
     atom:    2    charge:   14.7596    magn:    2.9897    constr:    0.0000

     total cpu time spent up to now is       37.9 secs

     total energy              =    -658.41360062 Ry
     Harris-Foulkes estimate   =    -658.41248516 Ry
     estimated scf accuracy    <       0.00079369 Ry

     total magnetization       =     5.81 Bohr mag/cell
     absolute magnetization    =     6.18 Bohr mag/cell

     iteration #  6     ecut=    50.00 Ry     beta=0.70
     Davidson diagonalization with overlap
     ethr =  2.48E-06,  avg # of iterations =  2.0

     negative rho (up, down):  0.000E+00 1.029E-03

     Magnetic moment per site:
     atom:    1    charge:   14.7589    magn:    2.9987    constr:    0.0000
     atom:    2    charge:   14.7589    magn:    2.9987    constr:    0.0000

     total cpu time spent up to now is       43.6 secs

     total energy              =    -658.41293018 Ry
     Harris-Foulkes estimate   =    -658.41388359 Ry
     estimated scf accuracy    <       0.00063431 Ry

     total magnetization       =     5.80 Bohr mag/cell
     absolute magnetization    =     6.16 Bohr mag/cell

     iteration #  7     ecut=    50.00 Ry     beta=0.70
     Davidson diagonalization with overlap
     ethr =  1.98E-06,  avg # of iterations =  1.4

     negative rho (up, down):  0.000E+00 9.700E-04

     Magnetic moment per site:
     atom:    1    charge:   14.7593    magn:    2.9698    constr:    0.0000
     atom:    2    charge:   14.7593    magn:    2.9698    constr:    0.0000

     total cpu time spent up to now is       49.0 secs

     total energy              =    -658.41446264 Ry
     Harris-Foulkes estimate   =    -658.41295793 Ry
     estimated scf accuracy    <       0.00156729 Ry

     total magnetization       =     5.81 Bohr mag/cell
     absolute magnetization    =     6.16 Bohr mag/cell

     iteration #  8     ecut=    50.00 Ry     beta=0.70
     Davidson diagonalization with overlap
     ethr =  1.98E-06,  avg # of iterations =  2.7

     negative rho (up, down):  0.000E+00 9.779E-04

     Magnetic moment per site:
     atom:    1    charge:   14.7613    magn:    2.9708    constr:    0.0000
     atom:    2    charge:   14.7613    magn:    2.9708    constr:    0.0000

     total cpu time spent up to now is       55.7 secs

     total energy              =    -658.41507419 Ry
     Harris-Foulkes estimate   =    -658.41507029 Ry
     estimated scf accuracy    <       0.00016743 Ry

     total magnetization       =     5.77 Bohr mag/cell
     absolute magnetization    =     6.11 Bohr mag/cell

     iteration #  9     ecut=    50.00 Ry     beta=0.70
     Davidson diagonalization with overlap
     ethr =  5.23E-07,  avg # of iterations =  1.7

     negative rho (up, down):  0.000E+00 9.628E-04

     Magnetic moment per site:
     atom:    1    charge:   14.7625    magn:    2.9540    constr:    0.0000
     atom:    2    charge:   14.7625    magn:    2.9540    constr:    0.0000

     total cpu time spent up to now is       61.3 secs

     total energy              =    -658.41536854 Ry
     Harris-Foulkes estimate   =    -658.41509153 Ry
     estimated scf accuracy    <       0.00043104 Ry

     total magnetization       =     5.77 Bohr mag/cell
     absolute magnetization    =     6.11 Bohr mag/cell

     iteration # 10     ecut=    50.00 Ry     beta=0.70
     Davidson diagonalization with overlap
     ethr =  5.23E-07,  avg # of iterations =  2.6

     negative rho (up, down):  0.000E+00 9.564E-04

     Magnetic moment per site:
     atom:    1    charge:   14.7629    magn:    2.9479    constr:    0.0000
     atom:    2    charge:   14.7629    magn:    2.9479    constr:    0.0000

     total cpu time spent up to now is       67.6 secs

     total energy              =    -658.41553370 Ry
     Harris-Foulkes estimate   =    -658.41548097 Ry
     estimated scf accuracy    <       0.00006506 Ry

     total magnetization       =     5.75 Bohr mag/cell
     absolute magnetization    =     6.08 Bohr mag/cell

     iteration # 11     ecut=    50.00 Ry     beta=0.70
     Davidson diagonalization with overlap
     ethr =  2.03E-07,  avg # of iterations =  2.7

     negative rho (up, down):  0.000E+00 9.498E-04

     Magnetic moment per site:
     atom:    1    charge:   14.7633    magn:    2.9422    constr:    0.0000
     atom:    2    charge:   14.7633    magn:    2.9422    constr:    0.0000

     total cpu time spent up to now is       73.5 secs

     total energy              =    -658.41557617 Ry
     Harris-Foulkes estimate   =    -658.41555882 Ry
     estimated scf accuracy    <       0.00002250 Ry

     total magnetization       =     5.75 Bohr mag/cell
     absolute magnetization    =     6.07 Bohr mag/cell

     iteration # 12     ecut=    50.00 Ry     beta=0.70
     Davidson diagonalization with overlap
     ethr =  7.03E-08,  avg # of iterations =  3.0

     negative rho (up, down):  0.000E+00 9.400E-04

     Magnetic moment per site:
     atom:    1    charge:   14.7643    magn:    2.9307    constr:    0.0000
     atom:    2    charge:   14.7643    magn:    2.9307    constr:    0.0000

     total cpu time spent up to now is       79.9 secs

     total energy              =    -658.41546291 Ry
     Harris-Foulkes estimate   =    -658.41559061 Ry
     estimated scf accuracy    <       0.00000309 Ry

     total magnetization       =     5.74 Bohr mag/cell
     absolute magnetization    =     6.06 Bohr mag/cell

     iteration # 13     ecut=    50.00 Ry     beta=0.70
     Davidson diagonalization with overlap
     ethr =  9.67E-09,  avg # of iterations =  4.3

     negative rho (up, down):  0.000E+00 9.468E-04

     Magnetic moment per site:
     atom:    1    charge:   14.7635    magn:    2.9390    constr:    0.0000
     atom:    2    charge:   14.7635    magn:    2.9390    constr:    0.0000

     total cpu time spent up to now is       88.5 secs

     total energy              =    -658.41560241 Ry
     Harris-Foulkes estimate   =    -658.41549963 Ry
     estimated scf accuracy    <       0.00003472 Ry

     total magnetization       =     5.73 Bohr mag/cell
     absolute magnetization    =     6.05 Bohr mag/cell

     iteration # 14     ecut=    50.00 Ry     beta=0.70
     Davidson diagonalization with overlap
     ethr =  9.67E-09,  avg # of iterations =  3.2

     negative rho (up, down):  0.000E+00 9.475E-04

     Magnetic moment per site:
     atom:    1    charge:   14.7634    magn:    2.9400    constr:    0.0000
     atom:    2    charge:   14.7634    magn:    2.9400    constr:    0.0000

     total cpu time spent up to now is       95.9 secs

     total energy              =    -658.41560888 Ry
     Harris-Foulkes estimate   =    -658.41561258 Ry
     estimated scf accuracy    <       0.00000167 Ry

     total magnetization       =     5.74 Bohr mag/cell
     absolute magnetization    =     6.05 Bohr mag/cell

     iteration # 15     ecut=    50.00 Ry     beta=0.70
     Davidson diagonalization with overlap
     ethr =  5.23E-09,  avg # of iterations =  1.6

     negative rho (up, down):  0.000E+00 9.459E-04

     Magnetic moment per site:
     atom:    1    charge:   14.7636    magn:    2.9381    constr:    0.0000
     atom:    2    charge:   14.7636    magn:    2.9381    constr:    0.0000

     total cpu time spent up to now is      102.0 secs

     total energy              =    -658.41561316 Ry
     Harris-Foulkes estimate   =    -658.41560903 Ry
     estimated scf accuracy    <       0.00000389 Ry

     total magnetization       =     5.74 Bohr mag/cell
     absolute magnetization    =     6.06 Bohr mag/cell

     iteration # 16     ecut=    50.00 Ry     beta=0.70
     Davidson diagonalization with overlap
     ethr =  5.23E-09,  avg # of iterations =  2.2

     negative rho (up, down):  0.000E+00 9.454E-04

     Magnetic moment per site:
     atom:    1    charge:   14.7637    magn:    2.9376    constr:    0.0000
     atom:    2    charge:   14.7637    magn:    2.9376    constr:    0.0000

     total cpu time spent up to now is      108.1 secs

     total energy              =    -658.41561402 Ry
     Harris-Foulkes estimate   =    -658.41561392 Ry
     estimated scf accuracy    <       0.00000025 Ry

     total magnetization       =     5.74 Bohr mag/cell
     absolute magnetization    =     6.05 Bohr mag/cell

     iteration # 17     ecut=    50.00 Ry     beta=0.70
     Davidson diagonalization with overlap
     ethr =  7.95E-10,  avg # of iterations =  2.6

     negative rho (up, down):  0.000E+00 9.454E-04

     Magnetic moment per site:
     atom:    1    charge:   14.7637    magn:    2.9375    constr:    0.0000
     atom:    2    charge:   14.7637    magn:    2.9375    constr:    0.0000

     total cpu time spent up to now is      114.1 secs

     total energy              =    -658.41561418 Ry
     Harris-Foulkes estimate   =    -658.41561412 Ry
     estimated scf accuracy    <       0.00000003 Ry

     total magnetization       =     5.74 Bohr mag/cell
     absolute magnetization    =     6.05 Bohr mag/cell

     iteration # 18     ecut=    50.00 Ry     beta=0.70
     Davidson diagonalization with overlap
     ethr =  1.09E-10,  avg # of iterations =  2.7

     negative rho (up, down):  0.000E+00 9.453E-04

     Magnetic moment per site:
     atom:    1    charge:   14.7637    magn:    2.9374    constr:    0.0000
     atom:    2    charge:   14.7637    magn:    2.9374    constr:    0.0000

     total cpu time spent up to now is      120.1 secs

     total energy              =    -658.41561421 Ry
     Harris-Foulkes estimate   =    -658.41561419 Ry
     estimated scf accuracy    <       0.00000004 Ry

     total magnetization       =     5.73 Bohr mag/cell
     absolute magnetization    =     6.05 Bohr mag/cell

     iteration # 19     ecut=    50.00 Ry     beta=0.70
     Davidson diagonalization with overlap
     ethr =  1.09E-10,  avg # of iterations =  2.0

     negative rho (up, down):  0.000E+00 9.450E-04

     Magnetic moment per site:
     atom:    1    charge:   14.7637    magn:    2.9370    constr:    0.0000
     atom:    2    charge:   14.7637    magn:    2.9370    constr:    0.0000

     total cpu time spent up to now is      125.7 secs

     total energy              =    -658.41561413 Ry
     Harris-Foulkes estimate   =    -658.41561422 Ry
     estimated scf accuracy    <       0.00000002 Ry

     total magnetization       =     5.73 Bohr mag/cell
     absolute magnetization    =     6.05 Bohr mag/cell

     iteration # 20     ecut=    50.00 Ry     beta=0.70
     Davidson diagonalization with overlap
     ethr =  5.06E-11,  avg # of iterations =  3.5

     negative rho (up, down):  0.000E+00 9.451E-04

     Magnetic moment per site:
     atom:    1    charge:   14.7637    magn:    2.9372    constr:    0.0000
     atom:    2    charge:   14.7637    magn:    2.9372    constr:    0.0000

     total cpu time spent up to now is      133.1 secs

     total energy              =    -658.41561423 Ry
     Harris-Foulkes estimate   =    -658.41561417 Ry
     estimated scf accuracy    <       0.00000002 Ry

     total magnetization       =     5.73 Bohr mag/cell
     absolute magnetization    =     6.05 Bohr mag/cell

     iteration # 21     ecut=    50.00 Ry     beta=0.70
     Davidson diagonalization with overlap
     ethr =  5.06E-11,  avg # of iterations =  2.2

     negative rho (up, down):  0.000E+00 9.451E-04

     Magnetic moment per site:
     atom:    1    charge:   14.7637    magn:    2.9372    constr:    0.0000
     atom:    2    charge:   14.7637    magn:    2.9372    constr:    0.0000

     total cpu time spent up to now is      139.2 secs

     End of self-consistent calculation

 ------ SPIN UP ------------


          k = 0.0000 0.0000 0.0000 (  1377 PWs)   bands (ev):

   -77.5373 -77.5301 -43.6064 -43.6064 -43.5975 -43.5975 -43.4938 -43.4249
     4.1207   7.2609   8.5773   8.5773   8.7024   8.7024   8.7401   8.7401
     8.8742   9.2023   9.2023  10.4516

          k = 0.0000 0.0000 0.1445 (  1383 PWs)   bands (ev):

   -77.5365 -77.5311 -43.6050 -43.6050 -43.5992 -43.5992 -43.4833 -43.4361
     4.5247   6.8878   8.5147   8.5147   8.6340   8.6340   8.8169   8.8900
     8.8900   9.1863   9.1863   9.2847

          k = 0.0000 0.0000-0.2890 (  1402 PWs)   bands (ev):

   -77.5340 -77.5340 -43.6024 -43.6024 -43.6024 -43.6024 -43.4607 -43.4607
     5.6382   5.6382   8.5298   8.5298   8.5298   8.5298   8.7642   8.7642
     9.0843   9.0843   9.0843   9.0843

          k = 0.0000 0.1443 0.0000 (  1379 PWs)   bands (ev):

   -77.5359 -77.5290 -43.6177 -43.6097 -43.6097 -43.5999 -43.4900 -43.4257
     4.5288   7.5179   8.4471   8.4941   8.6244   8.6674   8.7286   8.7518
     8.8414   9.0118   9.2216  11.4519

          k = 0.0000 0.1443 0.1445 (  1395 PWs)   bands (ev):

   -77.5352 -77.5302 -43.6167 -43.6112 -43.6085 -43.6017 -43.4808 -43.4360
     4.9206   7.1789   8.3485   8.4249   8.6003   8.6339   8.7454   8.7535
     8.9030   9.0771   9.2016  10.1054

          k = 0.0000 0.1443-0.2890 (  1412 PWs)   bands (ev):

   -77.5329 -77.5329 -43.6144 -43.6144 -43.6055 -43.6055 -43.4587 -43.4587
     5.9944   5.9944   8.3602   8.3602   8.6359   8.6359   8.6517   8.6517
     9.0930   9.0930   9.3430   9.3430

          k = 0.0000 0.2887 0.0000 (  1399 PWs)   bands (ev):

   -77.5325 -77.5270 -43.6455 -43.6371 -43.6177 -43.6061 -43.4804 -43.4297
     5.6587   7.7986   7.8590   8.3791   8.5154   8.5245   8.6387   9.1159
     9.1934   9.2458   9.3746  13.2510

          k = 0.0000 0.2887 0.1445 (  1411 PWs)   bands (ev):

   -77.5317 -77.5280 -43.6448 -43.6383 -43.6166 -43.6081 -43.4731 -43.4373
     5.9820   7.5279   7.9663   8.2656   8.5868   8.6349   8.6913   9.0159
     9.1671   9.2901   9.3848  11.1095

          k = 0.0000 0.2887-0.2890 (  1410 PWs)   bands (ev):

   -77.5299 -77.5299 -43.6420 -43.6420 -43.6125 -43.6125 -43.4546 -43.4546
     6.7804   6.7804   8.1508   8.1508   8.7154   8.7154   8.7780   8.7780
     9.2467   9.2467   9.7399   9.7399

          k = 0.0000 0.4330 0.0000 (  1406 PWs)   bands (ev):

   -77.5286 -77.5250 -43.6728 -43.6640 -43.6256 -43.6125 -43.4684 -43.4350
     6.9361   7.4665   7.5823   8.3366   8.3814   8.6261   9.1022   9.2534
     9.5333   9.5806  10.1215  14.8106

          k = 0.0000 0.4330 0.1445 (  1408 PWs)   bands (ev):

   -77.5281 -77.5255 -43.6719 -43.6661 -43.6237 -43.6142 -43.4633 -43.4394
     6.9358   7.4036   7.7764   8.0375   8.4915   9.0885   9.0969   9.3683
     9.5470   9.5900   9.9763  12.4745

          k = 0.0000 0.4330-0.2890 (  1410 PWs)   bands (ev):

   -77.5268 -77.5268 -43.6700 -43.6700 -43.6192 -43.6192 -43.4505 -43.4505
     7.1116   7.1116   7.9622   7.9622   8.7753   8.7753   9.5707   9.5707
     9.5760   9.5760  10.4970  10.4970

          k = 0.0000-0.5774 0.0000 (  1408 PWs)   bands (ev):

   -77.5268 -77.5243 -43.6841 -43.6754 -43.6287 -43.6146 -43.4618 -43.4392
     7.3161   7.3404   7.4270   8.2601   8.3292   9.1497   9.2144   9.2536
     9.7080   9.7623  11.5582  12.7061

          k = 0.0000-0.5774 0.1445 (  1408 PWs)   bands (ev):

   -77.5264 -77.5246 -43.6836 -43.6770 -43.6268 -43.6166 -43.4579 -43.4419
     7.0555   7.3764   7.7503   7.9319   8.4499   9.0999   9.2950   9.7183
     9.7554   9.7864  11.4739  12.5559

          k = 0.0000-0.5774-0.2890 (  1396 PWs)   bands (ev):

   -77.5253 -77.5253 -43.6807 -43.6807 -43.6214 -43.6214 -43.4488 -43.4488
     7.1209   7.1209   7.8808   7.8808   8.7592   8.7592   9.7381   9.7381
     9.8217   9.8217  11.9168  11.9168

          k = 0.1250 0.2165 0.0000 (  1406 PWs)   bands (ev):

   -77.5337 -77.5277 -43.6353 -43.6303 -43.6152 -43.6072 -43.4835 -43.4282
     5.3055   7.8867   8.0381   8.2441   8.4384   8.5376   8.6905   9.0275
     9.0687   9.2182   9.3038  12.7278

          k = 0.1250 0.2165 0.1445 (  1406 PWs)   bands (ev):

   -77.5330 -77.5285 -43.6346 -43.6309 -43.6140 -43.6086 -43.4750 -43.4365
     5.6612   7.5584   8.0761   8.2453   8.4866   8.5756   8.6584   8.9310
     9.1403   9.2340   9.3275  10.8336

          k = 0.1250 0.2165-0.2890 (  1400 PWs)   bands (ev):

   -77.5306 -77.5306 -43.6325 -43.6325 -43.6116 -43.6116 -43.4557 -43.4557
     6.5947   6.5947   8.2141   8.2141   8.5292   8.5292   8.7583   8.7583
     9.2434   9.2434   9.6322   9.6322

          k = 0.1250 0.3608 0.0000 (  1408 PWs)   bands (ev):

   -77.5297 -77.5256 -43.6596 -43.6536 -43.6263 -43.6155 -43.4726 -43.4332
     6.6203   7.6212   7.8492   8.2631   8.2659   8.5224   8.7248   9.2042
     9.3258   9.5756   9.9184  14.6607

          k = 0.1250 0.3608 0.1445 (  1409 PWs)   bands (ev):

   -77.5293 -77.5261 -43.6592 -43.6551 -43.6247 -43.6173 -43.4662 -43.4386
     6.7939   7.5240   7.9240   8.1623   8.4981   8.5753   8.7354   9.0353
     9.4287   9.6464   9.8892  12.0302

          k = 0.1250 0.3608-0.2890 (  1400 PWs)   bands (ev):

   -77.5275 -77.5275 -43.6574 -43.6574 -43.6214 -43.6214 -43.4514 -43.4514
     7.1798   7.1798   8.1073   8.1073   8.6319   8.6319   8.8169   8.8169
     9.7256   9.7256  10.2492  10.2492

          k = 0.1250 0.5052 0.0000 (  1418 PWs)   bands (ev):

   -77.5269 -77.5245 -43.6782 -43.6698 -43.6341 -43.6214 -43.4622 -43.4393
     7.4130   7.4322   7.6228   8.2233   8.3283   8.6911   9.0464   9.1936
     9.6433   9.8466  11.1978  14.0245

          k = 0.1250 0.5052 0.1445 (  1413 PWs)   bands (ev):

   -77.5265 -77.5247 -43.6774 -43.6714 -43.6325 -43.6237 -43.4579 -43.4419
     7.1943   7.5346   7.8374   7.9924   8.3400   8.9571   9.1286   9.1496
     9.6799   9.9313  11.2702  13.4193

          k = 0.1250 0.5052-0.2890 (  1408 PWs)   bands (ev):

   -77.5255 -77.5255 -43.6748 -43.6748 -43.6282 -43.6282 -43.4490 -43.4490
     7.2699   7.2699   7.9917   7.9917   8.6037   8.6037   9.2774   9.2774
     9.8886   9.8886  11.9578  11.9578

          k = 0.2500 0.4330 0.0000 (  1426 PWs)   bands (ev):

   -77.5270 -77.5247 -43.6675 -43.6650 -43.6404 -43.6318 -43.4620 -43.4392
     7.5039   7.6740   7.9770   8.0806   8.1312   8.3706   8.8255   9.1278
     9.5357   9.9024  11.0961  15.9744

          k = 0.2500 0.4330 0.1445 (  1418 PWs)   bands (ev):

   -77.5265 -77.5250 -43.6672 -43.6655 -43.6398 -43.6332 -43.4579 -43.4415
     7.4996   7.5521   7.9795   8.1863   8.2930   8.4373   8.8133   8.9748
     9.6463   9.9477  11.2365  13.7814

          k = 0.2500 0.4330-0.2890 (  1408 PWs)   bands (ev):

   -77.5255 -77.5255 -43.6663 -43.6663 -43.6368 -43.6368 -43.4489 -43.4489
     7.4866   7.4866   8.1294   8.1294   8.4426   8.4426   8.8210   8.8210
     9.9106   9.9106  11.9871  11.9871

          k = 0.2500 0.5774 0.0000 (  1422 PWs)   bands (ev):

   -77.5255 -77.5244 -43.6714 -43.6624 -43.6506 -43.6398 -43.4547 -43.4452
     7.4803   7.8958   7.9149   8.1609   8.2086   8.3278   8.9126   9.0952
     9.7254   9.8848  13.1240  13.5997

          k = 0.2500 0.5774 0.1445 (  1417 PWs)   bands (ev):

   -77.5252 -77.5245 -43.6702 -43.6640 -43.6497 -43.6419 -43.4516 -43.4451
     7.4979   7.8817   7.9548   7.9853   8.2393   8.5190   8.9161   8.9675
     9.7914   9.9333  13.4347  13.7434

          k = 0.2500 0.5774-0.2890 (  1416 PWs)   bands (ev):

   -77.5248 -77.5248 -43.6671 -43.6671 -43.6464 -43.6464 -43.4475 -43.4475
     7.6110   7.6110   8.0687   8.0687   8.3677   8.3677   8.9158   8.9158
     9.9252   9.9252  13.9767  13.9767

 ------ SPIN DOWN ----------


          k = 0.0000 0.0000 0.0000 (  1377 PWs)   bands (ev):

   -74.1832 -74.1748 -40.2951 -40.2795 -40.2795 -40.2694 -40.2694 -40.2148
     4.3968   8.1893  10.4366  10.5871  11.1987  11.1987  11.3713  11.3713
    12.4677  12.4677  13.0811  13.0811

          k = 0.0000 0.0000 0.1445 (  1383 PWs)   bands (ev):

   -74.1822 -74.1760 -40.2831 -40.2779 -40.2779 -40.2712 -40.2712 -40.2275
     4.8017   7.4542  10.1881  10.3456  11.1962  11.1962  11.3216  11.3216
    12.5879  12.5879  13.0189  13.0189

          k = 0.0000 0.0000-0.2890 (  1402 PWs)   bands (ev):

   -74.1794 -74.1794 -40.2749 -40.2749 -40.2749 -40.2749 -40.2560 -40.2560
     5.9424   5.9424  10.1614  10.1614  11.2340  11.2340  11.2340  11.2340
    12.8311  12.8311  12.8311  12.8311

          k = 0.0000 0.1443 0.0000 (  1379 PWs)   bands (ev):

   -74.1816 -74.1736 -40.2928 -40.2907 -40.2835 -40.2834 -40.2722 -40.2158
     4.8073   8.4996  10.4180  10.4879  11.0793  11.2547  11.3810  11.5393
    12.2990  12.3573  13.1132  13.6594

          k = 0.0000 0.1443 0.1445 (  1395 PWs)   bands (ev):

   -74.1806 -74.1749 -40.2935 -40.2857 -40.2819 -40.2780 -40.2742 -40.2270
     5.2053   7.8043  10.1261  10.4133  11.0403  11.2157  11.3727  11.4882
    12.4562  12.5006  13.0273  13.1763

          k = 0.0000 0.1443-0.2890 (  1412 PWs)   bands (ev):

   -74.1780 -74.1780 -40.2902 -40.2902 -40.2784 -40.2784 -40.2525 -40.2525
     6.3282   6.3282  10.1965  10.1965  11.0854  11.0854  11.4034  11.4034
    12.7899  12.7899  12.8002  12.8002

          k = 0.0000 0.2887 0.0000 (  1399 PWs)   bands (ev):

   -74.1775 -74.1711 -40.3254 -40.3158 -40.2927 -40.2794 -40.2793 -40.2201
     5.9767   9.1924  10.1832  10.4231  10.8232  11.3190  11.8582  11.9498
    11.9691  12.1321  13.1522  15.0061

          k = 0.0000 0.2887 0.1445 (  1411 PWs)   bands (ev):

   -74.1766 -74.1723 -40.3259 -40.3181 -40.2912 -40.2816 -40.2693 -40.2280
     6.3502   8.6808  10.0167  10.4894  10.7265  11.1241  11.8194  11.9130
    12.2132  12.3362  13.0189  13.5095

          k = 0.0000 0.2887-0.2890 (  1410 PWs)   bands (ev):

   -74.1744 -74.1744 -40.3233 -40.3233 -40.2865 -40.2865 -40.2473 -40.2473
     7.3834   7.3834  10.2557  10.2557  10.8247  10.8247  11.8368  11.8368
    12.6950  12.6950  12.7437  12.7437

          k = 0.0000 0.4330 0.0000 (  1406 PWs)   bands (ev):

   -74.1729 -74.1688 -40.3577 -40.3475 -40.3018 -40.2866 -40.2652 -40.2263
     7.6418   9.4832  10.0924  10.2486  10.7452  11.5932  11.9369  11.9754
    12.3948  12.4498  13.1644  15.5001

          k = 0.0000 0.4330 0.1445 (  1408 PWs)   bands (ev):

   -74.1723 -74.1695 -40.3577 -40.3507 -40.2996 -40.2887 -40.2580 -40.2306
     7.9187   9.3284   9.9391  10.4243  10.6821  11.4221  12.0565  12.1795
    12.4133  12.4411  12.9819  13.9492

          k = 0.0000 0.4330-0.2890 (  1410 PWs)   bands (ev):

   -74.1709 -74.1709 -40.3560 -40.3560 -40.2943 -40.2943 -40.2426 -40.2426
     8.6235   8.6235  10.1775  10.1775  11.0098  11.0098  12.2918  12.2918
    12.6288  12.6288  12.7578  12.7578

          k = 0.0000-0.5774 0.0000 (  1408 PWs)   bands (ev):

   -74.1708 -74.1680 -40.3710 -40.3607 -40.3054 -40.2893 -40.2574 -40.2312
     8.8000   9.3051  10.0823  10.0899  10.8361  11.4335  11.8615  12.6217
    12.6870  12.9180  13.1650  14.0270

          k = 0.0000-0.5774 0.1445 (  1408 PWs)   bands (ev):

   -74.1705 -74.1684 -40.3713 -40.3636 -40.3032 -40.2916 -40.2518 -40.2334
     8.8875   9.2844  10.0011  10.2261  10.8577  11.8222  12.0194  12.5547
    12.6245  12.6804  12.9422  13.7336

          k = 0.0000-0.5774-0.2890 (  1396 PWs)   bands (ev):

   -74.1693 -74.1693 -40.3688 -40.3688 -40.2971 -40.2971 -40.2407 -40.2407
     9.0998   9.0998  10.1321  10.1321  11.4559  11.4559  12.4281  12.4281
    12.6721  12.6721  12.9171  12.9171

          k = 0.1250 0.2165 0.0000 (  1406 PWs)   bands (ev):

   -74.1788 -74.1720 -40.3132 -40.3078 -40.2896 -40.2830 -40.2804 -40.2186
     5.5994   9.0219  10.2413  10.4458  11.0315  11.0496  11.7284  11.8764
    11.9923  12.2615  13.1094  14.6088

          k = 0.1250 0.2165 0.1445 (  1406 PWs)   bands (ev):

   -74.1779 -74.1729 -40.3140 -40.3091 -40.2885 -40.2821 -40.2715 -40.2273
     5.9824   8.4352  10.0505  10.4769  10.8306  11.0419  11.6940  11.8100
    12.2756  12.3896  12.9928  13.4364

          k = 0.1250 0.2165-0.2890 (  1400 PWs)   bands (ev):

   -74.1753 -74.1753 -40.3121 -40.3121 -40.2857 -40.2857 -40.2484 -40.2484
     7.0564   7.0564  10.2575  10.2575  10.8416  10.8416  11.7265  11.7265
    12.7000  12.7000  12.7805  12.7805

          k = 0.1250 0.3608 0.0000 (  1408 PWs)   bands (ev):

   -74.1743 -74.1695 -40.3421 -40.3353 -40.3025 -40.2902 -40.2701 -40.2241
     7.0504   9.5904  10.1481  10.2156  10.8264  11.3903  11.6665  12.0052
    12.2128  12.4403  13.0907  15.6678

          k = 0.1250 0.3608 0.1445 (  1409 PWs)   bands (ev):

   -74.1737 -74.1702 -40.3427 -40.3377 -40.3011 -40.2925 -40.2613 -40.2295
     7.3797   9.3224   9.9732  10.3538  10.7016  11.0724  11.9190  12.0862
    12.3632  12.4335  12.9553  13.9394

          k = 0.1250 0.3608-0.2890 (  1400 PWs)   bands (ev):

   -74.1719 -74.1719 -40.3414 -40.3414 -40.2973 -40.2973 -40.2434 -40.2434
     8.2783   8.2783  10.2850  10.2850  10.6701  10.6701  12.1315  12.1315
    12.6348  12.6348  12.8641  12.8641

          k = 0.1250 0.5052 0.0000 (  1418 PWs)   bands (ev):

   -74.1709 -74.1681 -40.3640 -40.3542 -40.3119 -40.2972 -40.2577 -40.2312
     8.6328   9.5523  10.0465  10.1709  10.9017  11.4580  11.7677  12.0669
    12.4397  13.0753  13.1273  15.0827

          k = 0.1250 0.5052 0.1445 (  1413 PWs)   bands (ev):

   -74.1705 -74.1685 -40.3640 -40.3569 -40.3102 -40.2999 -40.2516 -40.2332
     8.8102   9.5353   9.9612  10.3622  10.7628  11.3506  11.9243  12.1819
    12.5163  12.7237  13.2358  14.4922

          k = 0.1250 0.5052-0.2890 (  1408 PWs)   bands (ev):

   -74.1695 -74.1695 -40.3618 -40.3618 -40.3054 -40.3054 -40.2404 -40.2404
     9.2128   9.2128  10.2117  10.2117  10.9787  10.9787  12.2268  12.2268
    12.5184  12.5184  13.5370  13.5370

          k = 0.2500 0.4330 0.0000 (  1426 PWs)   bands (ev):

   -74.1709 -74.1683 -40.3516 -40.3482 -40.3192 -40.3092 -40.2576 -40.2311
     8.5185   9.8447   9.9310  10.2666  11.0778  11.4458  11.5218  11.7022
    12.3340  12.9826  13.2407  16.6883

          k = 0.2500 0.4330 0.1445 (  1418 PWs)   bands (ev):

   -74.1705 -74.1686 -40.3518 -40.3499 -40.3189 -40.3113 -40.2515 -40.2328
     8.7618   9.9296  10.0470  10.0723  10.9320  10.9683  11.6443  12.0394
    12.5306  12.6110  13.4114  15.1252

          k = 0.2500 0.4330-0.2890 (  1408 PWs)   bands (ev):

   -74.1694 -74.1694 -40.3517 -40.3517 -40.3160 -40.3160 -40.2400 -40.2400
     9.3727   9.3727  10.2948  10.2948  10.5634  10.5634  12.0441  12.0441
    12.5253  12.5253  13.8441  13.8441

          k = 0.2500 0.5774 0.0000 (  1422 PWs)   bands (ev):

   -74.1691 -74.1679 -40.3558 -40.3455 -40.3313 -40.3188 -40.2489 -40.2380
     9.4315   9.7684   9.8295  10.3872  11.2196  11.4002  11.4619  11.9337
    12.0640  12.9363  14.4677  14.9473

          k = 0.2500 0.5774 0.1445 (  1417 PWs)   bands (ev):

   -74.1689 -74.1681 -40.3551 -40.3482 -40.3309 -40.3215 -40.2444 -40.2369
     9.5897   9.8577   9.9434  10.4002  10.8825  11.0236  11.6177  12.1383
    12.2860  12.5760  14.7611  15.0337

          k = 0.2500 0.5774-0.2890 (  1416 PWs)   bands (ev):

   -74.1685 -74.1685 -40.3525 -40.3525 -40.3272 -40.3272 -40.2384 -40.2384
     9.8547   9.8547  10.3640  10.3640  10.5430  10.5430  11.9972  11.9972
    12.3644  12.3644  15.1377  15.1377

     the Fermi energy is    11.0407 ev

!    total energy              =    -658.41561424 Ry
     Harris-Foulkes estimate   =    -658.41561424 Ry
     estimated scf accuracy    <          1.4E-09 Ry

     total all-electron energy =     -5091.008685 Ry

     The total energy is the sum of the following terms:

     one-electron contribution =    -295.51809901 Ry
     hartree contribution      =     160.17529280 Ry
     xc contribution           =     -69.41636782 Ry
     ewald contribution        =    -301.37741946 Ry
     one-center paw contrib.   =    -152.27856930 Ry
     smearing contrib. (-TS)   =      -0.00045145 Ry

     total magnetization       =     5.73 Bohr mag/cell
     absolute magnetization    =     6.05 Bohr mag/cell

     convergence has been achieved in  21 iterations

     Forces acting on atoms (Ry/au):


     negative rho (up, down):  0.000E+00 9.451E-04
     atom    1 type  1   force =    -0.00000000   -0.00000000    0.00000000
     atom    2 type  1   force =     0.00000000    0.00000000    0.00000000

     Total force =     0.000000     Total SCF correction =     0.000000


     entering subroutine stress ...


     negative rho (up, down):  0.000E+00 9.451E-04
          total   stress  (Ry/bohr**3)                   (kbar)     P= -286.95
  -0.00210726  -0.00000000   0.00000000       -309.99     -0.00      0.00
  -0.00000000  -0.00210726  -0.00000000         -0.00   -309.99     -0.00
   0.00000000   0.00000000  -0.00163733          0.00      0.00   -240.86


     Writing output data file Fe_hcp.save

     init_run     :      4.20s CPU      4.12s WALL (       1 calls)
     electrons    :    142.63s CPU    134.72s WALL (       1 calls)
     forces       :      0.74s CPU      0.58s WALL (       1 calls)
     stress       :      1.98s CPU      1.98s WALL (       1 calls)

     Called by init_run:
     wfcinit      :      2.55s CPU      2.43s WALL (       1 calls)
     potinit      :      1.04s CPU      1.07s WALL (       1 calls)

     Called by electrons:
     c_bands      :    102.58s CPU     94.30s WALL (      21 calls)
     sum_band     :     17.61s CPU     17.20s WALL (      21 calls)
     v_of_rho     :      1.27s CPU      1.31s WALL (      22 calls)
     newd         :      1.55s CPU      1.68s WALL (      22 calls)
     mix_rho      :      0.21s CPU      0.28s WALL (      21 calls)

     Called by c_bands:
     init_us_2    :      1.46s CPU      1.47s WALL (    2700 calls)
     cegterg      :     98.29s CPU     89.97s WALL (    1260 calls)

     Called by *egterg:
     h_psi        :     78.80s CPU     75.90s WALL (    4498 calls)
     s_psi        :      3.37s CPU      1.94s WALL (    4498 calls)
     g_psi        :      0.52s CPU      0.52s WALL (    3178 calls)
     cdiaghg      :      4.20s CPU      4.23s WALL (    4438 calls)

     Called by h_psi:
     add_vuspsi   :      4.07s CPU      2.33s WALL (    4498 calls)

     General routines
     calbec       :      5.26s CPU      2.96s WALL (    5878 calls)
     fft          :      0.70s CPU      0.70s WALL (     716 calls)
     ffts         :      0.06s CPU      0.06s WALL (      86 calls)
     fftw         :     76.15s CPU     76.65s WALL (  153952 calls)
     interpolate  :      0.16s CPU      0.17s WALL (      86 calls)
     davcio       :      0.00s CPU      0.03s WALL (      60 calls)


     PAW routines
     PAW_pot      :     20.38s CPU     20.93s WALL (      22 calls)
     PAW_symme    :      0.03s CPU      0.03s WALL (      43 calls)

     PWSCF        :  2m29.98s CPU     2m21.95s WALL


   This run was terminated on:  19:52: 5  11May2015            

=------------------------------------------------------------------------------=
   JOB DONE.
=------------------------------------------------------------------------------=
