
     Program PWSCF v.5.1.2 starts on 11May2015 at 20:42: 4 

     This program is part of the open-source Quantum ESPRESSO suite
     for quantum simulation of materials; please cite
         "P. Giannozzi et al., J. Phys.:Condens. Matter 21 395502 (2009);
          URL http://www.quantum-espresso.org", 
     in publications or presentations arising from this work. More details at
     http://www.quantum-espresso.org/quote

     Serial version
     Reading input from Fe_HCP_5.38_173_9_5.pw.in

     Current dimensions of program PWSCF are:
     Max number of different atomic species (ntypx) = 10
     Max number of k-points (npk) =  40000
     Max angular momentum in pseudopotentials (lmaxx) =  3
               file Fe.pbe-spn-kjpaw_psl.0.2.1.UPF: wavefunction(s)  3D renormalized

     G-vector sticks info
     --------------------
     sticks:   dense  smooth     PW     G-vecs:    dense   smooth      PW
     Sum         499     397    121                15629    11129    1967

     Generating pointlists ...
     new r_m :   0.4125 (alat units)  2.2193 (a.u.) for type    1


     bravais-lattice index     =            4
     lattice parameter (alat)  =       5.3800  a.u.
     unit-cell volume          =     233.3047 (a.u.)^3
     number of atoms/cell      =            2
     number of atomic types    =            1
     number of electrons       =        32.00
     number of Kohn-Sham states=           20
     kinetic-energy cutoff     =      50.0000  Ry
     charge density cutoff     =     250.0000  Ry
     convergence threshold     =      1.0E-08
     mixing beta               =       0.7000
     number of iterations used =            8  plain     mixing
     Exchange-correlation      =  SLA  PW   PBX  PBC ( 1  4  3  4 0 0)

     celldm(1)=   5.380000  celldm(2)=   0.000000  celldm(3)=   1.730000
     celldm(4)=   0.000000  celldm(5)=   0.000000  celldm(6)=   0.000000

     crystal axes: (cart. coord. in units of alat)
               a(1) = (   1.000000   0.000000   0.000000 )  
               a(2) = (  -0.500000   0.866025   0.000000 )  
               a(3) = (   0.000000   0.000000   1.730000 )  

     reciprocal axes: (cart. coord. in units 2 pi/alat)
               b(1) = (  1.000000  0.577350 -0.000000 )  
               b(2) = (  0.000000  1.154701  0.000000 )  
               b(3) = (  0.000000 -0.000000  0.578035 )  


     PseudoPot. # 1 for Fe read from file:
     ./Fe.pbe-spn-kjpaw_psl.0.2.1.UPF
     MD5 check sum: a0a08122d52b112de96d1da1d7dd020f
     Pseudo is Projector augmented-wave + core cor, Zval = 16.0
     Generated using "atomic" code by A. Dal Corso  v.5.0.2 svn rev. 9415
     Shape of augmentation charge: PSQ
     Using radial grid of 1191 points,  6 beta functions with: 
                l(1) =   0
                l(2) =   0
                l(3) =   1
                l(4) =   1
                l(5) =   2
                l(6) =   2
     Q(r) pseudized with 0 coefficients 


     atomic species   valence    mass     pseudopotential
        Fe            16.00    55.85000     Fe( 1.00)

     Starting magnetic structure 
     atomic species   magnetization
        Fe           0.700

     24 Sym. Ops., with inversion, found (12 have fractional translation)



   Cartesian axes

     site n.     atom                  positions (alat units)
         1           Fe  tau(   1) = (  -0.0000000   0.5773503   0.4325000  )
         2           Fe  tau(   2) = (   0.5000000   0.2886751   1.2975000  )

     number of k points=    72  Marzari-Vanderbilt smearing, width (Ry)=  0.0250
                       cart. coord. in units 2pi/alat
        k(    1) = (   0.0000000   0.0000000   0.0000000), wk =   0.0024691
        k(    2) = (   0.0000000   0.0000000   0.1156069), wk =   0.0049383
        k(    3) = (   0.0000000   0.0000000   0.2312139), wk =   0.0049383
        k(    4) = (   0.0000000   0.1283001   0.0000000), wk =   0.0148148
        k(    5) = (   0.0000000   0.1283001   0.1156069), wk =   0.0296296
        k(    6) = (   0.0000000   0.1283001   0.2312139), wk =   0.0296296
        k(    7) = (   0.0000000   0.2566001   0.0000000), wk =   0.0148148
        k(    8) = (   0.0000000   0.2566001   0.1156069), wk =   0.0296296
        k(    9) = (   0.0000000   0.2566001   0.2312139), wk =   0.0296296
        k(   10) = (   0.0000000   0.3849002   0.0000000), wk =   0.0148148
        k(   11) = (   0.0000000   0.3849002   0.1156069), wk =   0.0296296
        k(   12) = (   0.0000000   0.3849002   0.2312139), wk =   0.0296296
        k(   13) = (   0.0000000   0.5132002   0.0000000), wk =   0.0148148
        k(   14) = (   0.0000000   0.5132002   0.1156069), wk =   0.0296296
        k(   15) = (   0.0000000   0.5132002   0.2312139), wk =   0.0296296
        k(   16) = (   0.1111111   0.1924501   0.0000000), wk =   0.0148148
        k(   17) = (   0.1111111   0.1924501   0.1156069), wk =   0.0296296
        k(   18) = (   0.1111111   0.1924501   0.2312139), wk =   0.0296296
        k(   19) = (   0.1111111   0.3207501   0.0000000), wk =   0.0296296
        k(   20) = (   0.1111111   0.3207501   0.1156069), wk =   0.0592593
        k(   21) = (   0.1111111   0.3207501   0.2312139), wk =   0.0592593
        k(   22) = (   0.1111111   0.4490502   0.0000000), wk =   0.0296296
        k(   23) = (   0.1111111   0.4490502   0.1156069), wk =   0.0592593
        k(   24) = (   0.1111111   0.4490502   0.2312139), wk =   0.0592593
        k(   25) = (   0.1111111   0.5773503   0.0000000), wk =   0.0148148
        k(   26) = (   0.1111111   0.5773503   0.1156069), wk =   0.0296296
        k(   27) = (   0.1111111   0.5773503   0.2312139), wk =   0.0296296
        k(   28) = (   0.2222222   0.3849002   0.0000000), wk =   0.0148148
        k(   29) = (   0.2222222   0.3849002   0.1156069), wk =   0.0296296
        k(   30) = (   0.2222222   0.3849002   0.2312139), wk =   0.0296296
        k(   31) = (   0.2222222   0.5132002   0.0000000), wk =   0.0296296
        k(   32) = (   0.2222222   0.5132002   0.1156069), wk =   0.0592593
        k(   33) = (   0.2222222   0.5132002   0.2312139), wk =   0.0592593
        k(   34) = (   0.3333333   0.5773503   0.0000000), wk =   0.0049383
        k(   35) = (   0.3333333   0.5773503   0.1156069), wk =   0.0098765
        k(   36) = (   0.3333333   0.5773503   0.2312139), wk =   0.0098765
        k(   37) = (   0.0000000   0.0000000   0.0000000), wk =   0.0024691
        k(   38) = (   0.0000000   0.0000000   0.1156069), wk =   0.0049383
        k(   39) = (   0.0000000   0.0000000   0.2312139), wk =   0.0049383
        k(   40) = (   0.0000000   0.1283001   0.0000000), wk =   0.0148148
        k(   41) = (   0.0000000   0.1283001   0.1156069), wk =   0.0296296
        k(   42) = (   0.0000000   0.1283001   0.2312139), wk =   0.0296296
        k(   43) = (   0.0000000   0.2566001   0.0000000), wk =   0.0148148
        k(   44) = (   0.0000000   0.2566001   0.1156069), wk =   0.0296296
        k(   45) = (   0.0000000   0.2566001   0.2312139), wk =   0.0296296
        k(   46) = (   0.0000000   0.3849002   0.0000000), wk =   0.0148148
        k(   47) = (   0.0000000   0.3849002   0.1156069), wk =   0.0296296
        k(   48) = (   0.0000000   0.3849002   0.2312139), wk =   0.0296296
        k(   49) = (   0.0000000   0.5132002   0.0000000), wk =   0.0148148
        k(   50) = (   0.0000000   0.5132002   0.1156069), wk =   0.0296296
        k(   51) = (   0.0000000   0.5132002   0.2312139), wk =   0.0296296
        k(   52) = (   0.1111111   0.1924501   0.0000000), wk =   0.0148148
        k(   53) = (   0.1111111   0.1924501   0.1156069), wk =   0.0296296
        k(   54) = (   0.1111111   0.1924501   0.2312139), wk =   0.0296296
        k(   55) = (   0.1111111   0.3207501   0.0000000), wk =   0.0296296
        k(   56) = (   0.1111111   0.3207501   0.1156069), wk =   0.0592593
        k(   57) = (   0.1111111   0.3207501   0.2312139), wk =   0.0592593
        k(   58) = (   0.1111111   0.4490502   0.0000000), wk =   0.0296296
        k(   59) = (   0.1111111   0.4490502   0.1156069), wk =   0.0592593
        k(   60) = (   0.1111111   0.4490502   0.2312139), wk =   0.0592593
        k(   61) = (   0.1111111   0.5773503   0.0000000), wk =   0.0148148
        k(   62) = (   0.1111111   0.5773503   0.1156069), wk =   0.0296296
        k(   63) = (   0.1111111   0.5773503   0.2312139), wk =   0.0296296
        k(   64) = (   0.2222222   0.3849002   0.0000000), wk =   0.0148148
        k(   65) = (   0.2222222   0.3849002   0.1156069), wk =   0.0296296
        k(   66) = (   0.2222222   0.3849002   0.2312139), wk =   0.0296296
        k(   67) = (   0.2222222   0.5132002   0.0000000), wk =   0.0296296
        k(   68) = (   0.2222222   0.5132002   0.1156069), wk =   0.0592593
        k(   69) = (   0.2222222   0.5132002   0.2312139), wk =   0.0592593
        k(   70) = (   0.3333333   0.5773503   0.0000000), wk =   0.0049383
        k(   71) = (   0.3333333   0.5773503   0.1156069), wk =   0.0098765
        k(   72) = (   0.3333333   0.5773503   0.2312139), wk =   0.0098765

     Dense  grid:    15629 G-vectors     FFT dimensions: (  27,  27,  48)

     Smooth grid:    11129 G-vectors     FFT dimensions: (  25,  25,  45)

     Largest allocated arrays     est. size (Mb)     dimensions
        Kohn-Sham Wavefunctions         0.43 Mb     (    1416,   20)
        NL pseudopotentials             0.78 Mb     (    1416,   36)
        Each V/rho on FFT grid          1.07 Mb     (   34992,   2)
        Each G-vector array             0.12 Mb     (   15629)
        G-vector shells                 0.01 Mb     (     819)
     Largest temporary arrays     est. size (Mb)     dimensions
        Auxiliary wavefunctions         1.73 Mb     (    1416,   80)
        Each subspace H/S matrix        0.10 Mb     (      80,   80)
        Each <psi_i|beta_j> matrix      0.01 Mb     (      36,   20)
        Arrays for rho mixing           4.27 Mb     (   34992,    8)

     Check: negative/imaginary core charge=   -0.000326    0.000000

     Initial potential from superposition of free atoms

     starting charge   31.99912, renormalised to   32.00000
     Starting wfc are   26 randomized atomic wfcs

     total cpu time spent up to now is        5.0 secs

     Self-consistent Calculation

     iteration #  1     ecut=    50.00 Ry     beta=0.70
     Davidson diagonalization with overlap
     ethr =  1.00E-02,  avg # of iterations =  2.0

     negative rho (up, down):  0.000E+00 1.048E-03

     Magnetic moment per site:
     atom:    1    charge:   14.5955    magn:    5.9351    constr:    0.0000
     atom:    2    charge:   14.5955    magn:    5.9351    constr:    0.0000

     total cpu time spent up to now is       12.3 secs

     total energy              =    -657.97044547 Ry
     Harris-Foulkes estimate   =    -656.24567260 Ry
     estimated scf accuracy    <       2.84556976 Ry

     total magnetization       =     8.00 Bohr mag/cell
     absolute magnetization    =     8.24 Bohr mag/cell

     iteration #  2     ecut=    50.00 Ry     beta=0.70
     Davidson diagonalization with overlap
     ethr =  8.89E-03,  avg # of iterations =  1.6

     negative rho (up, down):  0.000E+00 1.039E-03

     Magnetic moment per site:
     atom:    1    charge:   14.8177    magn:    3.9994    constr:    0.0000
     atom:    2    charge:   14.8177    magn:    3.9994    constr:    0.0000

     total cpu time spent up to now is       18.9 secs

     total energy              =    -658.15864085 Ry
     Harris-Foulkes estimate   =    -658.18200254 Ry
     estimated scf accuracy    <       0.80457734 Ry

     total magnetization       =     6.62 Bohr mag/cell
     absolute magnetization    =     6.88 Bohr mag/cell

     iteration #  3     ecut=    50.00 Ry     beta=0.70
     Davidson diagonalization with overlap
     ethr =  2.51E-03,  avg # of iterations =  3.1

     negative rho (up, down):  0.000E+00 1.210E-03

     Magnetic moment per site:
     atom:    1    charge:   14.7033    magn:    3.0449    constr:    0.0000
     atom:    2    charge:   14.7033    magn:    3.0449    constr:    0.0000

     total cpu time spent up to now is       26.7 secs

     total energy              =    -658.18728565 Ry
     Harris-Foulkes estimate   =    -658.64720093 Ry
     estimated scf accuracy    <       1.28182063 Ry

     total magnetization       =     6.60 Bohr mag/cell
     absolute magnetization    =     6.87 Bohr mag/cell

     iteration #  4     ecut=    50.00 Ry     beta=0.70
     Davidson diagonalization with overlap
     ethr =  2.51E-03,  avg # of iterations =  2.7

     negative rho (up, down):  0.000E+00 1.034E-03

     Magnetic moment per site:
     atom:    1    charge:   14.7551    magn:    3.0582    constr:    0.0000
     atom:    2    charge:   14.7551    magn:    3.0582    constr:    0.0000

     total cpu time spent up to now is       34.3 secs

     total energy              =    -658.41212567 Ry
     Harris-Foulkes estimate   =    -658.41242433 Ry
     estimated scf accuracy    <       0.00640328 Ry

     total magnetization       =     5.97 Bohr mag/cell
     absolute magnetization    =     6.29 Bohr mag/cell

     iteration #  5     ecut=    50.00 Ry     beta=0.70
     Davidson diagonalization with overlap
     ethr =  2.00E-05,  avg # of iterations =  3.3

     negative rho (up, down):  0.000E+00 1.027E-03

     Magnetic moment per site:
     atom:    1    charge:   14.7501    magn:    3.0579    constr:    0.0000
     atom:    2    charge:   14.7501    magn:    3.0579    constr:    0.0000

     total cpu time spent up to now is       44.4 secs

     total energy              =    -658.41863365 Ry
     Harris-Foulkes estimate   =    -658.41783549 Ry
     estimated scf accuracy    <       0.00072838 Ry

     total magnetization       =     6.00 Bohr mag/cell
     absolute magnetization    =     6.30 Bohr mag/cell

     iteration #  6     ecut=    50.00 Ry     beta=0.70
     Davidson diagonalization with overlap
     ethr =  2.28E-06,  avg # of iterations =  2.2

     negative rho (up, down):  0.000E+00 9.725E-04

     Magnetic moment per site:
     atom:    1    charge:   14.7492    magn:    3.0457    constr:    0.0000
     atom:    2    charge:   14.7492    magn:    3.0457    constr:    0.0000

     total cpu time spent up to now is       52.1 secs

     total energy              =    -658.41639853 Ry
     Harris-Foulkes estimate   =    -658.41884772 Ry
     estimated scf accuracy    <       0.00047178 Ry

     total magnetization       =     6.00 Bohr mag/cell
     absolute magnetization    =     6.28 Bohr mag/cell

     iteration #  7     ecut=    50.00 Ry     beta=0.70
     Davidson diagonalization with overlap
     ethr =  1.47E-06,  avg # of iterations =  3.4

     negative rho (up, down):  0.000E+00 1.003E-03

     Magnetic moment per site:
     atom:    1    charge:   14.7499    magn:    3.0539    constr:    0.0000
     atom:    2    charge:   14.7499    magn:    3.0539    constr:    0.0000

     total cpu time spent up to now is       62.2 secs

     total energy              =    -658.41960284 Ry
     Harris-Foulkes estimate   =    -658.41759114 Ry
     estimated scf accuracy    <       0.00056530 Ry

     total magnetization       =     5.98 Bohr mag/cell
     absolute magnetization    =     6.24 Bohr mag/cell

     iteration #  8     ecut=    50.00 Ry     beta=0.70
     Davidson diagonalization with overlap
     ethr =  1.47E-06,  avg # of iterations =  2.3

     negative rho (up, down):  0.000E+00 1.002E-03

     Magnetic moment per site:
     atom:    1    charge:   14.7500    magn:    3.0536    constr:    0.0000
     atom:    2    charge:   14.7500    magn:    3.0536    constr:    0.0000

     total cpu time spent up to now is       70.6 secs

     total energy              =    -658.41975597 Ry
     Harris-Foulkes estimate   =    -658.41979154 Ry
     estimated scf accuracy    <       0.00021122 Ry

     total magnetization       =     5.99 Bohr mag/cell
     absolute magnetization    =     6.25 Bohr mag/cell

     iteration #  9     ecut=    50.00 Ry     beta=0.70
     Davidson diagonalization with overlap
     ethr =  6.60E-07,  avg # of iterations =  1.0

     negative rho (up, down):  0.000E+00 1.003E-03

     Magnetic moment per site:
     atom:    1    charge:   14.7499    magn:    3.0548    constr:    0.0000
     atom:    2    charge:   14.7499    magn:    3.0548    constr:    0.0000

     total cpu time spent up to now is       77.2 secs

     total energy              =    -658.41965977 Ry
     Harris-Foulkes estimate   =    -658.41976093 Ry
     estimated scf accuracy    <       0.00023320 Ry

     total magnetization       =     5.99 Bohr mag/cell
     absolute magnetization    =     6.25 Bohr mag/cell

     iteration # 10     ecut=    50.00 Ry     beta=0.70
     Davidson diagonalization with overlap
     ethr =  6.60E-07,  avg # of iterations =  1.0

     negative rho (up, down):  0.000E+00 9.780E-04

     Magnetic moment per site:
     atom:    1    charge:   14.7533    magn:    3.0293    constr:    0.0000
     atom:    2    charge:   14.7533    magn:    3.0293    constr:    0.0000

     total cpu time spent up to now is       84.0 secs

     total energy              =    -658.41865179 Ry
     Harris-Foulkes estimate   =    -658.41966199 Ry
     estimated scf accuracy    <       0.00031388 Ry

     total magnetization       =     5.99 Bohr mag/cell
     absolute magnetization    =     6.25 Bohr mag/cell

     iteration # 11     ecut=    50.00 Ry     beta=0.70
     Davidson diagonalization with overlap
     ethr =  6.60E-07,  avg # of iterations =  3.2

     negative rho (up, down):  0.000E+00 9.742E-04

     Magnetic moment per site:
     atom:    1    charge:   14.7537    magn:    3.0254    constr:    0.0000
     atom:    2    charge:   14.7537    magn:    3.0254    constr:    0.0000

     total cpu time spent up to now is       93.2 secs

     total energy              =    -658.41918873 Ry
     Harris-Foulkes estimate   =    -658.41913970 Ry
     estimated scf accuracy    <       0.00037622 Ry

     total magnetization       =     5.97 Bohr mag/cell
     absolute magnetization    =     6.22 Bohr mag/cell

     iteration # 12     ecut=    50.00 Ry     beta=0.70
     Davidson diagonalization with overlap
     ethr =  6.60E-07,  avg # of iterations =  1.8

     negative rho (up, down):  0.000E+00 9.744E-04

     Magnetic moment per site:
     atom:    1    charge:   14.7535    magn:    3.0263    constr:    0.0000
     atom:    2    charge:   14.7535    magn:    3.0263    constr:    0.0000

     total cpu time spent up to now is       99.9 secs

     total energy              =    -658.41949509 Ry
     Harris-Foulkes estimate   =    -658.41921425 Ry
     estimated scf accuracy    <       0.00052931 Ry

     total magnetization       =     5.97 Bohr mag/cell
     absolute magnetization    =     6.21 Bohr mag/cell

     iteration # 13     ecut=    50.00 Ry     beta=0.70
     Davidson diagonalization with overlap
     ethr =  6.60E-07,  avg # of iterations =  1.0

     negative rho (up, down):  0.000E+00 9.840E-04

     Magnetic moment per site:
     atom:    1    charge:   14.7519    magn:    3.0373    constr:    0.0000
     atom:    2    charge:   14.7519    magn:    3.0373    constr:    0.0000

     total cpu time spent up to now is      106.2 secs

     total energy              =    -658.41996239 Ry
     Harris-Foulkes estimate   =    -658.41949739 Ry
     estimated scf accuracy    <       0.00043115 Ry

     total magnetization       =     5.97 Bohr mag/cell
     absolute magnetization    =     6.21 Bohr mag/cell

     iteration # 14     ecut=    50.00 Ry     beta=0.70
     Davidson diagonalization with overlap
     ethr =  6.60E-07,  avg # of iterations =  2.3

     negative rho (up, down):  0.000E+00 9.916E-04

     Magnetic moment per site:
     atom:    1    charge:   14.7508    magn:    3.0443    constr:    0.0000
     atom:    2    charge:   14.7508    magn:    3.0443    constr:    0.0000

     total cpu time spent up to now is      113.5 secs

     total energy              =    -658.41990030 Ry
     Harris-Foulkes estimate   =    -658.42003809 Ry
     estimated scf accuracy    <       0.00001443 Ry

     total magnetization       =     5.97 Bohr mag/cell
     absolute magnetization    =     6.22 Bohr mag/cell

     iteration # 15     ecut=    50.00 Ry     beta=0.70
     Davidson diagonalization with overlap
     ethr =  4.51E-08,  avg # of iterations =  3.6

     negative rho (up, down):  0.000E+00 9.894E-04

     Magnetic moment per site:
     atom:    1    charge:   14.7511    magn:    3.0409    constr:    0.0000
     atom:    2    charge:   14.7511    magn:    3.0409    constr:    0.0000

     total cpu time spent up to now is      123.2 secs

     total energy              =    -658.42004843 Ry
     Harris-Foulkes estimate   =    -658.41994687 Ry
     estimated scf accuracy    <       0.00004747 Ry

     total magnetization       =     5.98 Bohr mag/cell
     absolute magnetization    =     6.23 Bohr mag/cell

     iteration # 16     ecut=    50.00 Ry     beta=0.70
     Davidson diagonalization with overlap
     ethr =  4.51E-08,  avg # of iterations =  2.4

     negative rho (up, down):  0.000E+00 9.886E-04

     Magnetic moment per site:
     atom:    1    charge:   14.7512    magn:    3.0399    constr:    0.0000
     atom:    2    charge:   14.7512    magn:    3.0399    constr:    0.0000

     total cpu time spent up to now is      131.0 secs

     total energy              =    -658.42005675 Ry
     Harris-Foulkes estimate   =    -658.42005437 Ry
     estimated scf accuracy    <       0.00000088 Ry

     total magnetization       =     5.98 Bohr mag/cell
     absolute magnetization    =     6.23 Bohr mag/cell

     iteration # 17     ecut=    50.00 Ry     beta=0.70
     Davidson diagonalization with overlap
     ethr =  2.75E-09,  avg # of iterations =  3.0

     negative rho (up, down):  0.000E+00 9.888E-04

     Magnetic moment per site:
     atom:    1    charge:   14.7512    magn:    3.0404    constr:    0.0000
     atom:    2    charge:   14.7512    magn:    3.0404    constr:    0.0000

     total cpu time spent up to now is      139.8 secs

     total energy              =    -658.42005730 Ry
     Harris-Foulkes estimate   =    -658.42005729 Ry
     estimated scf accuracy    <       0.00000094 Ry

     total magnetization       =     5.98 Bohr mag/cell
     absolute magnetization    =     6.23 Bohr mag/cell

     iteration # 18     ecut=    50.00 Ry     beta=0.70
     Davidson diagonalization with overlap
     ethr =  2.75E-09,  avg # of iterations =  1.9

     negative rho (up, down):  0.000E+00 9.888E-04

     Magnetic moment per site:
     atom:    1    charge:   14.7512    magn:    3.0403    constr:    0.0000
     atom:    2    charge:   14.7512    magn:    3.0403    constr:    0.0000

     total cpu time spent up to now is      146.9 secs

     total energy              =    -658.42005739 Ry
     Harris-Foulkes estimate   =    -658.42005745 Ry
     estimated scf accuracy    <       0.00000007 Ry

     total magnetization       =     5.98 Bohr mag/cell
     absolute magnetization    =     6.23 Bohr mag/cell

     iteration # 19     ecut=    50.00 Ry     beta=0.70
     Davidson diagonalization with overlap
     ethr =  2.03E-10,  avg # of iterations =  3.0

     negative rho (up, down):  0.000E+00 9.888E-04

     Magnetic moment per site:
     atom:    1    charge:   14.7512    magn:    3.0403    constr:    0.0000
     atom:    2    charge:   14.7512    magn:    3.0403    constr:    0.0000

     total cpu time spent up to now is      155.7 secs

     total energy              =    -658.42005745 Ry
     Harris-Foulkes estimate   =    -658.42005742 Ry
     estimated scf accuracy    <       0.00000005 Ry

     total magnetization       =     5.98 Bohr mag/cell
     absolute magnetization    =     6.23 Bohr mag/cell

     iteration # 20     ecut=    50.00 Ry     beta=0.70
     Davidson diagonalization with overlap
     ethr =  1.56E-10,  avg # of iterations =  1.1

     negative rho (up, down):  0.000E+00 9.888E-04

     Magnetic moment per site:
     atom:    1    charge:   14.7512    magn:    3.0404    constr:    0.0000
     atom:    2    charge:   14.7512    magn:    3.0404    constr:    0.0000

     total cpu time spent up to now is      162.3 secs

     total energy              =    -658.42005747 Ry
     Harris-Foulkes estimate   =    -658.42005745 Ry
     estimated scf accuracy    <       0.00000003 Ry

     total magnetization       =     5.98 Bohr mag/cell
     absolute magnetization    =     6.23 Bohr mag/cell

     iteration # 21     ecut=    50.00 Ry     beta=0.70
     Davidson diagonalization with overlap
     ethr =  8.82E-11,  avg # of iterations =  1.6

     negative rho (up, down):  0.000E+00 9.889E-04

     Magnetic moment per site:
     atom:    1    charge:   14.7512    magn:    3.0404    constr:    0.0000
     atom:    2    charge:   14.7512    magn:    3.0404    constr:    0.0000

     total cpu time spent up to now is      168.7 secs

     End of self-consistent calculation

 ------ SPIN UP ------------


          k = 0.0000 0.0000 0.0000 (  1377 PWs)   bands (ev):

   -77.4704 -77.4629 -43.5289 -43.5289 -43.5197 -43.5197 -43.4340 -43.3625
     4.1973   7.2935   8.6484   8.6484   8.7751   8.7751   8.8680   8.8680
     8.8881   9.3382   9.3382  10.5653

          k = 0.0000 0.0000 0.1156 (  1371 PWs)   bands (ev):

   -77.4697 -77.4634 -43.5277 -43.5277 -43.5205 -43.5205 -43.4268 -43.3699
     4.4596   7.0863   8.6060   8.6060   8.7313   8.7313   8.8501   8.9684
     8.9684   9.3262   9.3262   9.6224

          k = 0.0000 0.0000 0.2312 (  1389 PWs)   bands (ev):

   -77.4679 -77.4655 -43.5259 -43.5259 -43.5230 -43.5230 -43.4095 -43.3884
     5.2077   6.2686   8.5909   8.5909   8.6453   8.6453   8.7831   8.8784
     9.1345   9.1345   9.2647   9.2647

          k = 0.0000 0.1283 0.0000 (  1375 PWs)   bands (ev):

   -77.4693 -77.4618 -43.5382 -43.5313 -43.5299 -43.5217 -43.4308 -43.3631
     4.5235   7.5013   8.5341   8.6838   8.7100   8.7704   8.8082   8.8873
     8.9144   9.0046   9.3546  11.4152

          k = 0.0000 0.1283 0.1156 (  1382 PWs)   bands (ev):

   -77.4688 -77.4626 -43.5374 -43.5307 -43.5307 -43.5227 -43.4241 -43.3701
     4.7794   7.3161   8.5106   8.5471   8.6915   8.7340   8.8312   8.8696
     8.9592   9.0807   9.3387  10.3832

          k = 0.0000 0.1283 0.2312 (  1388 PWs)   bands (ev):

   -77.4670 -77.4644 -43.5354 -43.5329 -43.5280 -43.5254 -43.4075 -43.3873
     5.5094   6.5371   8.4413   8.4916   8.6790   8.7017   8.7415   8.7673
     9.1315   9.2657   9.2687   9.5879

          k = 0.0000 0.2566 0.0000 (  1389 PWs)   bands (ev):

   -77.4662 -77.4600 -43.5625 -43.5537 -43.5385 -43.5270 -43.4223 -43.3660
     5.4458   7.8393   8.0946   8.4345   8.6343   8.6750   8.6962   9.0945
     9.1825   9.2967   9.3786  12.9620

          k = 0.0000 0.2566 0.1156 (  1395 PWs)   bands (ev):

   -77.4656 -77.4607 -43.5618 -43.5548 -43.5377 -43.5280 -43.4169 -43.3713
     5.6729   7.7002   8.0858   8.4011   8.6061   8.7077   8.7598   9.0855
     9.1571   9.3239   9.3747  11.3828

          k = 0.0000 0.2566 0.2312 (  1378 PWs)   bands (ev):

   -77.4639 -77.4619 -43.5596 -43.5569 -43.5343 -43.5309 -43.4023 -43.3851
     6.3005   7.1114   8.1922   8.3280   8.6537   8.7419   8.8043   8.9481
     9.2364   9.3272   9.5118  10.1005

          k = 0.0000 0.3849 0.0000 (  1392 PWs)   bands (ev):

   -77.4623 -77.4579 -43.5895 -43.5797 -43.5460 -43.5331 -43.4116 -43.3706
     6.6661   7.6709   7.7155   8.5113   8.5340   8.5413   8.9965   9.3892
     9.4909   9.5441   9.8417  14.8462

          k = 0.0000 0.3849 0.1156 (  1385 PWs)   bands (ev):

   -77.4617 -77.4582 -43.5887 -43.5812 -43.5449 -43.5341 -43.4069 -43.3739
     6.7600   7.5756   7.8453   8.2273   8.6077   8.9179   9.0733   9.2704
     9.5051   9.5687   9.7785  12.5959

          k = 0.0000 0.3849 0.2312 (  1392 PWs)   bands (ev):

   -77.4607 -77.4594 -43.5874 -43.5845 -43.5418 -43.5376 -43.3961 -43.3835
     7.0031   7.3177   8.0236   8.1343   8.7895   9.0360   9.1999   9.4045
     9.5372   9.5675   9.7987  10.8568

          k = 0.0000 0.5132 0.0000 (  1398 PWs)   bands (ev):

   -77.4596 -77.4568 -43.6071 -43.5979 -43.5510 -43.5365 -43.4022 -43.3758
     7.3150   7.4664   7.5244   8.3942   8.4604   9.0486   9.2551   9.3906
     9.7574   9.8094  11.0150  13.6862

          k = 0.0000 0.5132 0.1156 (  1399 PWs)   bands (ev):

   -77.4593 -77.4570 -43.6064 -43.5993 -43.5499 -43.5380 -43.3991 -43.3779
     7.1526   7.4747   7.7654   8.1053   8.5386   9.2304   9.2868   9.6261
     9.7649   9.8076  10.9468  13.3124

          k = 0.0000 0.5132 0.2312 (  1387 PWs)   bands (ev):

   -77.4584 -77.4575 -43.6050 -43.6020 -43.5462 -43.5414 -43.3914 -43.3833
     7.1358   7.3072   7.9403   7.9803   8.7518   9.0354   9.5911   9.7811
     9.7978   9.9772  11.1442  12.1696

          k = 0.1111 0.1925 0.0000 (  1390 PWs)   bands (ev):

   -77.4673 -77.4605 -43.5534 -43.5480 -43.5352 -43.5272 -43.4251 -43.3651
     5.1510   7.8272   8.2675   8.3606   8.6109   8.6247   8.8408   9.0333
     9.0376   9.2483   9.3566  12.5121

          k = 0.1111 0.1925 0.1156 (  1391 PWs)   bands (ev):

   -77.4666 -77.4612 -43.5528 -43.5482 -43.5347 -43.5279 -43.4195 -43.3709
     5.3904   7.6712   8.1966   8.3647   8.6147   8.6657   8.7913   8.9952
     9.1093   9.2625   9.3576  11.1075

          k = 0.1111 0.1925 0.2312 (  1384 PWs)   bands (ev):

   -77.4649 -77.4627 -43.5512 -43.5492 -43.5330 -43.5307 -43.4037 -43.3856
     6.0671   6.9810   8.2566   8.3570   8.5991   8.6520   8.7986   8.8986
     9.2227   9.3163   9.4416   9.9601

          k = 0.1111 0.3208 0.0000 (  1396 PWs)   bands (ev):

   -77.4637 -77.4585 -43.5765 -43.5707 -43.5452 -43.5345 -43.4155 -43.3690
     6.2737   7.8319   7.9457   8.3171   8.4405   8.6851   8.6992   9.2853
     9.3505   9.4802   9.7299  14.1599

          k = 0.1111 0.3208 0.1156 (  1389 PWs)   bands (ev):

   -77.4631 -77.4590 -43.5761 -43.5713 -43.5442 -43.5358 -43.4106 -43.3728
     6.4464   7.7226   8.0006   8.2841   8.5507   8.6833   8.7069   9.1890
     9.3901   9.5254   9.7226  12.1715

          k = 0.1111 0.3208 0.2312 (  1386 PWs)   bands (ev):

   -77.4618 -77.4601 -43.5751 -43.5732 -43.5419 -43.5386 -43.3983 -43.3840
     6.8850   7.3792   8.1354   8.2584   8.6437   8.6860   8.8070   8.9933
     9.5884   9.6755   9.7102  10.5860

          k = 0.1111 0.4491 0.0000 (  1393 PWs)   bands (ev):

   -77.4602 -77.4570 -43.5977 -43.5899 -43.5539 -43.5409 -43.4046 -43.3739
     7.2884   7.5664   7.7222   8.3549   8.5191   8.5896   9.0237   9.3431
     9.6034   9.8234  10.5845  15.1132

          k = 0.1111 0.4491 0.1156 (  1393 PWs)   bands (ev):

   -77.4599 -77.4573 -43.5974 -43.5910 -43.5528 -43.5422 -43.4012 -43.3765
     7.2169   7.6068   7.8381   8.1510   8.5083   8.9495   9.0627   9.2403
     9.6286   9.8790  10.5787  13.5666

          k = 0.1111 0.4491 0.2312 (  1392 PWs)   bands (ev):

   -77.4590 -77.4580 -43.5961 -43.5937 -43.5497 -43.5457 -43.3926 -43.3833
     7.2463   7.4272   8.0177   8.1162   8.6400   8.9199   9.1983   9.2545
     9.7887   9.9528  10.8128  11.8667

          k = 0.1111 0.5774 0.0000 (  1396 PWs)   bands (ev):

   -77.4588 -77.4565 -43.6066 -43.5971 -43.5573 -43.5433 -43.3987 -43.3778
     7.4802   7.5333   7.6009   8.3719   8.3983   8.9501   9.1410   9.3393
     9.7868   9.9116  12.0164  13.0316

          k = 0.1111 0.5774 0.1156 (  1402 PWs)   bands (ev):

   -77.4587 -77.4567 -43.6063 -43.5986 -43.5562 -43.5453 -43.3962 -43.3794
     7.2779   7.5936   7.8497   8.0944   8.4317   9.1712   9.2206   9.3028
     9.7919   9.9737  12.0635  12.9944

          k = 0.1111 0.5774 0.2312 (  1396 PWs)   bands (ev):

   -77.4581 -77.4571 -43.6046 -43.6014 -43.5528 -43.5488 -43.3898 -43.3837
     7.2568   7.4276   7.9934   8.0406   8.5938   8.9152   9.4357   9.4866
     9.8539  10.0153  12.3417  12.7929

          k = 0.2222 0.3849 0.0000 (  1404 PWs)   bands (ev):

   -77.4606 -77.4573 -43.5874 -43.5866 -43.5569 -43.5480 -43.4059 -43.3736
     7.3532   7.6511   8.0332   8.1403   8.2811   8.5785   8.8082   9.2904
     9.4639   9.8727  10.5463  15.6406

          k = 0.2222 0.3849 0.1156 (  1397 PWs)   bands (ev):

   -77.4602 -77.4574 -43.5874 -43.5870 -43.5562 -43.5491 -43.4021 -43.3761
     7.3680   7.6187   8.0456   8.2152   8.4510   8.5264   8.8000   9.1718
     9.5448   9.9133  10.5835  13.5336

          k = 0.2222 0.3849 0.2312 (  1395 PWs)   bands (ev):

   -77.4593 -77.4583 -43.5876 -43.5875 -43.5548 -43.5519 -43.3930 -43.3832
     7.4316   7.5332   8.1476   8.2738   8.5257   8.6185   8.8136   8.9433
     9.8120   9.9580  10.8401  11.8218

          k = 0.2222 0.5132 0.0000 (  1412 PWs)   bands (ev):

   -77.4583 -77.4567 -43.5974 -43.5897 -43.5688 -43.5576 -43.3963 -43.3800
     7.5738   7.8564   7.9168   8.2653   8.3981   8.4100   8.9825   9.2513
     9.6955   9.9596  12.0807  14.6317

          k = 0.2222 0.5132 0.1156 (  1406 PWs)   bands (ev):

   -77.4582 -77.4567 -43.5967 -43.5904 -43.5681 -43.5590 -43.3940 -43.3809
     7.5344   7.8847   7.9595   8.1530   8.3310   8.6457   8.9984   9.1491
     9.7450   9.9942  12.2183  14.5530

          k = 0.2222 0.5132 0.2312 (  1405 PWs)   bands (ev):

   -77.4577 -77.4571 -43.5952 -43.5927 -43.5658 -43.5622 -43.3888 -43.3839
     7.5507   7.6922   8.1026   8.2466   8.3499   8.6297   9.0312   9.0417
     9.8934  10.0103  12.7040  13.6494

          k = 0.3333 0.5774 0.0000 (  1416 PWs)   bands (ev):

   -77.4571 -77.4571 -43.5906 -43.5813 -43.5813 -43.5719 -43.3880 -43.3880
     7.6086   8.1247   8.1247   8.1863   8.2778   8.2778   8.9414   9.2070
     9.8492   9.8492  14.2210  14.4275

          k = 0.3333 0.5774 0.1156 (  1407 PWs)   bands (ev):

   -77.4569 -77.4569 -43.5885 -43.5819 -43.5819 -43.5738 -43.3866 -43.3866
     7.6857   8.0176   8.0176   8.1754   8.3870   8.3870   8.9209   9.1023
     9.8894   9.8894  14.5470  14.5573

          k = 0.3333 0.5774 0.2312 (  1404 PWs)   bands (ev):

   -77.4569 -77.4569 -43.5836 -43.5826 -43.5826 -43.5783 -43.3857 -43.3857
     7.8837   7.9224   7.9224   8.0886   8.4840   8.4840   8.8889   8.9340
     9.9570   9.9570  14.8787  14.8787

 ------ SPIN DOWN ----------


          k = 0.0000 0.0000 0.0000 (  1377 PWs)   bands (ev):

   -74.0097 -74.0008 -40.1331 -40.0996 -40.0996 -40.0891 -40.0891 -40.0493
     4.5229   8.3722  10.6602  10.7349  11.3894  11.3894  11.5653  11.5653
    12.5950  12.5950  13.2158  13.2158

          k = 0.0000 0.0000 0.1156 (  1371 PWs)   bands (ev):

   -74.0089 -74.0015 -40.1248 -40.0983 -40.0983 -40.0900 -40.0900 -40.0578
     4.7863   7.8761  10.4379  10.5977  11.3849  11.3849  11.5303  11.5303
    12.6774  12.6774  13.1771  13.1771

          k = 0.0000 0.0000 0.2312 (  1389 PWs)   bands (ev):

   -74.0068 -74.0041 -40.1043 -40.0961 -40.0961 -40.0929 -40.0929 -40.0792
     5.5464   6.6940  10.3208  10.4467  11.3987  11.3987  11.4559  11.4559
    12.8661  12.8661  13.0556  13.0556

          k = 0.0000 0.1283 0.0000 (  1375 PWs)   bands (ev):

   -74.0083 -73.9997 -40.1293 -40.1106 -40.1025 -40.1008 -40.0914 -40.0502
     4.8505   8.6232  10.5873  10.7023  11.2929  11.4675  11.5367  11.7011
    12.4560  12.5048  13.2429  13.6940

          k = 0.0000 0.1283 0.1156 (  1382 PWs)   bands (ev):

   -74.0076 -74.0006 -40.1230 -40.1083 -40.1022 -40.1017 -40.0925 -40.0578
     5.1098   8.1501  10.3604  10.6508  11.2641  11.4459  11.5285  11.6649
    12.5597  12.6006  13.1913  13.3745

          k = 0.0000 0.1283 0.2312 (  1388 PWs)   bands (ev):

   -74.0056 -74.0028 -40.1117 -40.1059 -40.0987 -40.0975 -40.0956 -40.0766
     5.8605   6.9934  10.3202  10.4915  11.2663  11.3505  11.5369  11.5909
    12.8075  12.8174  13.0398  13.0832

          k = 0.0000 0.2566 0.0000 (  1389 PWs)   bands (ev):

   -74.0047 -73.9975 -40.1390 -40.1289 -40.1195 -40.1108 -40.0975 -40.0534
     5.7951   9.2298  10.3513  10.6596  11.0826  11.4560  11.9348  12.0616
    12.1591  12.3082  13.2814  14.8262

          k = 0.0000 0.2566 0.1156 (  1395 PWs)   bands (ev):

   -74.0040 -73.9983 -40.1402 -40.1309 -40.1110 -40.1097 -40.0987 -40.0589
     6.0420   8.8523  10.2155  10.6915  11.0152  11.3513  11.9083  12.0189
    12.3258  12.4436  13.2027  13.7951

          k = 0.0000 0.2566 0.2312 (  1378 PWs)   bands (ev):

   -74.0021 -73.9999 -40.1388 -40.1349 -40.1060 -40.1021 -40.0929 -40.0736
     6.7544   7.8123  10.3145  10.5876  10.9741  11.1557  11.9010  11.9489
    12.6913  12.7118  12.9919  13.1470

          k = 0.0000 0.3849 0.0000 (  1392 PWs)   bands (ev):

   -74.0001 -73.9951 -40.1710 -40.1600 -40.1196 -40.1067 -40.1046 -40.0587
     7.2134   9.6541  10.2215  10.5028  10.9248  11.8228  11.9309  12.1143
    12.4399  12.5092  13.2984  15.7667

          k = 0.0000 0.3849 0.1156 (  1385 PWs)   bands (ev):

   -73.9995 -73.9955 -40.1713 -40.1623 -40.1183 -40.1058 -40.1002 -40.0618
     7.4220   9.4930  10.1094  10.6357  10.8331  11.5572  12.1676  12.2171
    12.4628  12.5107  13.1904  14.3151

          k = 0.0000 0.3849 0.2312 (  1392 PWs)   bands (ev):

   -73.9984 -73.9969 -40.1709 -40.1672 -40.1146 -40.1098 -40.0863 -40.0719
     8.0048   8.8115  10.2553  10.5442  10.9171  11.2296  12.2860  12.3975
    12.6324  12.6670  12.9330  13.2561

          k = 0.0000 0.5132 0.0000 (  1398 PWs)   bands (ev):

   -73.9969 -73.9937 -40.1919 -40.1810 -40.1254 -40.1087 -40.0955 -40.0648
     8.6368   9.5638  10.1975  10.3080  11.0347  11.5889  11.9980  12.7888
    12.7940  12.8495  13.3008  14.8436

          k = 0.0000 0.5132 0.1156 (  1399 PWs)   bands (ev):

   -73.9967 -73.9940 -40.1920 -40.1833 -40.1241 -40.1104 -40.0910 -40.0665
     8.7375   9.5271  10.1272  10.4092  11.0206  11.7915  12.0983  12.6589
    12.7943  12.8373  13.1615  14.3806

          k = 0.0000 0.5132 0.2312 (  1387 PWs)   bands (ev):

   -73.9958 -73.9947 -40.1914 -40.1879 -40.1198 -40.1144 -40.0810 -40.0717
     8.9978   9.3118  10.2098  10.4008  11.2646  11.7927  12.3732  12.7091
    12.7282  12.8339  12.9039  13.4590

          k = 0.1111 0.1925 0.0000 (  1390 PWs)   bands (ev):

   -74.0059 -73.9982 -40.1283 -40.1227 -40.1222 -40.1070 -40.0976 -40.0523
     5.4873   9.0624  10.4117  10.6854  11.2293  11.2909  11.8238  11.9748
    12.1939  12.4260  13.2472  14.4886

          k = 0.1111 0.1925 0.1156 (  1391 PWs)   bands (ev):

   -74.0051 -73.9990 -40.1306 -40.1230 -40.1130 -40.1066 -40.0985 -40.0584
     5.7385   8.6465  10.2547  10.6931  11.1051  11.2957  11.7989  11.9269
    12.3776  12.5086  13.1781  13.6882

          k = 0.1111 0.1925 0.2312 (  1384 PWs)   bands (ev):

   -74.0032 -74.0007 -40.1293 -40.1257 -40.1047 -40.1020 -40.0940 -40.0742
     6.4682   7.5576  10.3224  10.5702  11.0362  11.1735  11.8000  11.8530
    12.7323  12.7337  12.9882  13.1444

          k = 0.1111 0.3208 0.0000 (  1396 PWs)   bands (ev):

   -74.0017 -73.9959 -40.1557 -40.1491 -40.1185 -40.1113 -40.1063 -40.0567
     6.6826   9.6439  10.2769  10.4818  11.0418  11.4950  11.8881  12.2154
    12.2771  12.4485  13.2403  15.6914

          k = 0.1111 0.3208 0.1156 (  1389 PWs)   bands (ev):

   -74.0011 -73.9964 -40.1566 -40.1505 -40.1177 -40.1083 -40.1036 -40.0606
     6.9124   9.3957  10.1506  10.5585  10.9748  11.2949  12.0846  12.1552
    12.4182  12.4766  13.1515  14.1946

          k = 0.1111 0.3208 0.2312 (  1386 PWs)   bands (ev):

   -73.9996 -73.9978 -40.1567 -40.1540 -40.1152 -40.1114 -40.0880 -40.0720
     7.5658   8.5130  10.3165  10.6595  10.7535  11.0238  12.1484  12.2773
    12.6559  12.6927  12.9400  13.2708

          k = 0.1111 0.4491 0.0000 (  1393 PWs)   bands (ev):

   -73.9977 -73.9940 -40.1809 -40.1715 -40.1288 -40.1137 -40.0984 -40.0627
     8.1712   9.7678  10.2552  10.3206  11.0470  11.6492  11.9784  12.0563
    12.6285  12.9998  13.2302  15.9741

          k = 0.1111 0.4491 0.1156 (  1393 PWs)   bands (ev):

   -73.9973 -73.9943 -40.1813 -40.1736 -40.1277 -40.1155 -40.0933 -40.0648
     8.3359   9.7295  10.1004  10.5067  10.9381  11.5268  12.0413  12.2046
    12.7030  12.8763  13.1935  14.8718

          k = 0.1111 0.4491 0.2312 (  1392 PWs)   bands (ev):

   -73.9964 -73.9953 -40.1810 -40.1780 -40.1245 -40.1197 -40.0818 -40.0712
     8.7769   9.3333  10.2489  10.5204  10.9265  11.2249  12.2363  12.5255
    12.5980  12.8351  13.1816  13.6945

          k = 0.1111 0.5774 0.0000 (  1396 PWs)   bands (ev):

   -73.9960 -73.9934 -40.1912 -40.1801 -40.1328 -40.1166 -40.0915 -40.0672
     9.1159   9.6060  10.1893  10.2715  11.1266  11.5508  11.8776  12.5912
    12.6331  13.2247  13.6185  14.5580

          k = 0.1111 0.5774 0.1156 (  1402 PWs)   bands (ev):

   -73.9959 -73.9937 -40.1916 -40.1826 -40.1317 -40.1189 -40.0874 -40.0681
     9.1748   9.6078  10.1607  10.3883  11.0379  11.6246  12.0125  12.6191
    12.6285  12.9963  13.6137  14.4384

          k = 0.1111 0.5774 0.2312 (  1396 PWs)   bands (ev):

   -73.9952 -73.9942 -40.1908 -40.1871 -40.1281 -40.1232 -40.0787 -40.0717
     9.3262   9.5086  10.2589  10.4632  11.1169  11.5253  12.3100  12.5753
    12.6305  12.7090  13.6839  14.0759

          k = 0.2222 0.3849 0.0000 (  1404 PWs)   bands (ev):

   -73.9981 -73.9943 -40.1689 -40.1675 -40.1324 -40.1220 -40.0998 -40.0621
     7.9927   9.9916  10.2010  10.3147  11.1682  11.6192  11.6423  11.9776
    12.5517  13.0703  13.1560  16.5478

          k = 0.2222 0.3849 0.1156 (  1397 PWs)   bands (ev):

   -73.9977 -73.9945 -40.1694 -40.1690 -40.1320 -40.1237 -40.0939 -40.0642
     8.1812  10.0277  10.1087  10.2756  11.1438  11.2109  11.8873  12.0861
    12.7018  12.8409  13.2376  15.0737

          k = 0.2222 0.3849 0.2312 (  1395 PWs)   bands (ev):

   -73.9967 -73.9955 -40.1710 -40.1706 -40.1307 -40.1274 -40.0818 -40.0708
     8.7039   9.4111  10.3532  10.4666  10.8208  10.8778  12.0699  12.4485
    12.6009  12.8323  13.3242  13.8556

          k = 0.2222 0.5132 0.0000 (  1412 PWs)   bands (ev):

   -73.9954 -73.9935 -40.1802 -40.1711 -40.1463 -40.1333 -40.0885 -40.0696
     9.2427   9.9283  10.0799  10.4270  11.3277  11.5320  11.6964  12.0370
    12.4804  13.1009  13.9582  15.8081

          k = 0.2222 0.5132 0.1156 (  1406 PWs)   bands (ev):

   -73.9953 -73.9936 -40.1801 -40.1729 -40.1461 -40.1353 -40.0846 -40.0696
     9.3567   9.9976  10.0891  10.4661  11.1186  11.3318  11.7763  12.2083
    12.5974  12.8594  14.0834  15.6723

          k = 0.2222 0.5132 0.2312 (  1405 PWs)   bands (ev):

   -73.9947 -73.9941 -40.1795 -40.1768 -40.1440 -40.1397 -40.0769 -40.0714
     9.6367   9.9109  10.3109  10.5839  10.7774  10.9616  12.0104  12.3957
    12.5172  12.6854  14.3955  15.0066

          k = 0.3333 0.5774 0.0000 (  1416 PWs)   bands (ev):

   -73.9939 -73.9939 -40.1719 -40.1614 -40.1614 -40.1503 -40.0787 -40.0787
     9.8386   9.8386  10.0520  10.5700  11.4980  11.4980  11.5696  12.1360
    12.1360  13.0403  15.5121  15.6801

          k = 0.3333 0.5774 0.1156 (  1407 PWs)   bands (ev):

   -73.9938 -73.9938 -40.1696 -40.1633 -40.1633 -40.1524 -40.0762 -40.0762
     9.9545   9.9545  10.1085  10.5351  11.2239  11.2239  11.6455  12.3170
    12.3170  12.7926  15.7843  15.7843

          k = 0.3333 0.5774 0.2312 (  1404 PWs)   bands (ev):

   -73.9938 -73.9938 -40.1661 -40.1661 -40.1640 -40.1577 -40.0732 -40.0732
    10.2530  10.2632  10.2632  10.4195  10.7637  10.7637  11.8976  12.3171
    12.5029  12.5029  16.0215  16.0215

     the Fermi energy is    11.1810 ev

!    total energy              =    -658.42005748 Ry
     Harris-Foulkes estimate   =    -658.42005747 Ry
     estimated scf accuracy    <          7.5E-09 Ry

     total all-electron energy =     -5091.013128 Ry

     The total energy is the sum of the following terms:

     one-electron contribution =    -293.55259216 Ry
     hartree contribution      =     159.33993481 Ry
     xc contribution           =     -69.43017013 Ry
     ewald contribution        =    -302.49778161 Ry
     one-center paw contrib.   =    -152.27992109 Ry
     smearing contrib. (-TS)   =       0.00047270 Ry

     total magnetization       =     5.98 Bohr mag/cell
     absolute magnetization    =     6.23 Bohr mag/cell

     convergence has been achieved in  21 iterations

     Forces acting on atoms (Ry/au):


     negative rho (up, down):  0.000E+00 9.889E-04
     atom    1 type  1   force =    -0.00000000   -0.00000000    0.00000000
     atom    2 type  1   force =     0.00000000    0.00000000    0.00000000

     Total force =     0.000000     Total SCF correction =     0.000000


     entering subroutine stress ...


     negative rho (up, down):  0.000E+00 9.889E-04
          total   stress  (Ry/bohr**3)                   (kbar)     P= -280.72
  -0.00199526   0.00000000   0.00000000       -293.51      0.00      0.00
   0.00000000  -0.00199526   0.00000000          0.00   -293.51      0.00
   0.00000000   0.00000000  -0.00173442          0.00      0.00   -255.14


     Writing output data file Fe_hcp.save

     init_run     :      4.66s CPU      4.64s WALL (       1 calls)
     electrons    :    172.63s CPU    163.74s WALL (       1 calls)
     forces       :      0.76s CPU      0.63s WALL (       1 calls)
     stress       :      2.30s CPU      2.39s WALL (       1 calls)

     Called by init_run:
     wfcinit      :      2.99s CPU      2.88s WALL (       1 calls)
     potinit      :      1.07s CPU      1.14s WALL (       1 calls)

     Called by electrons:
     c_bands      :    128.72s CPU    119.16s WALL (      21 calls)
     sum_band     :     21.09s CPU     20.76s WALL (      21 calls)
     v_of_rho     :      1.27s CPU      1.32s WALL (      22 calls)
     newd         :      1.58s CPU      1.67s WALL (      22 calls)
     mix_rho      :      0.22s CPU      0.29s WALL (      21 calls)

     Called by c_bands:
     init_us_2    :      1.78s CPU      1.82s WALL (    3240 calls)
     cegterg      :    123.56s CPU    113.87s WALL (    1512 calls)

     Called by *egterg:
     h_psi        :     98.11s CPU     95.69s WALL (    4994 calls)
     s_psi        :      4.52s CPU      2.60s WALL (    4994 calls)
     g_psi        :      0.62s CPU      0.63s WALL (    3410 calls)
     cdiaghg      :      4.92s CPU      5.01s WALL (    4922 calls)

     Called by h_psi:
     add_vuspsi   :      5.11s CPU      2.92s WALL (    4994 calls)

     General routines
     calbec       :      6.96s CPU      3.98s WALL (    6650 calls)
     fft          :      0.72s CPU      0.74s WALL (     716 calls)
     ffts         :      0.06s CPU      0.06s WALL (      86 calls)
     fftw         :     94.10s CPU     96.07s WALL (  186646 calls)
     interpolate  :      0.17s CPU      0.19s WALL (      86 calls)
     davcio       :      0.00s CPU      0.04s WALL (      72 calls)


     PAW routines
     PAW_pot      :     20.74s CPU     21.57s WALL (      22 calls)
     PAW_symme    :      0.03s CPU      0.03s WALL (      43 calls)

     PWSCF        :  3m 0.85s CPU     2m52.00s WALL


   This run was terminated on:  20:44:56  11May2015            

=------------------------------------------------------------------------------=
   JOB DONE.
=------------------------------------------------------------------------------=
