
     Program PWSCF v.5.1.2 starts on 11May2015 at 23:51:59 

     This program is part of the open-source Quantum ESPRESSO suite
     for quantum simulation of materials; please cite
         "P. Giannozzi et al., J. Phys.:Condens. Matter 21 395502 (2009);
          URL http://www.quantum-espresso.org", 
     in publications or presentations arising from this work. More details at
     http://www.quantum-espresso.org/quote

     Serial version
     Reading input from Fe_HCP_5.4_174_11_6.pw.in

     Current dimensions of program PWSCF are:
     Max number of different atomic species (ntypx) = 10
     Max number of k-points (npk) =  40000
     Max angular momentum in pseudopotentials (lmaxx) =  3
               file Fe.pbe-spn-kjpaw_psl.0.2.1.UPF: wavefunction(s)  3D renormalized

     G-vector sticks info
     --------------------
     sticks:   dense  smooth     PW     G-vecs:    dense   smooth      PW
     Sum         499     397    121                15833    11263    1979

     Generating pointlists ...
     new r_m :   0.4125 (alat units)  2.2275 (a.u.) for type    1


     bravais-lattice index     =            4
     lattice parameter (alat)  =       5.4000  a.u.
     unit-cell volume          =     237.2800 (a.u.)^3
     number of atoms/cell      =            2
     number of atomic types    =            1
     number of electrons       =        32.00
     number of Kohn-Sham states=           20
     kinetic-energy cutoff     =      50.0000  Ry
     charge density cutoff     =     250.0000  Ry
     convergence threshold     =      1.0E-08
     mixing beta               =       0.7000
     number of iterations used =            8  plain     mixing
     Exchange-correlation      =  SLA  PW   PBX  PBC ( 1  4  3  4 0 0)

     celldm(1)=   5.400000  celldm(2)=   0.000000  celldm(3)=   1.740000
     celldm(4)=   0.000000  celldm(5)=   0.000000  celldm(6)=   0.000000

     crystal axes: (cart. coord. in units of alat)
               a(1) = (   1.000000   0.000000   0.000000 )  
               a(2) = (  -0.500000   0.866025   0.000000 )  
               a(3) = (   0.000000   0.000000   1.740000 )  

     reciprocal axes: (cart. coord. in units 2 pi/alat)
               b(1) = (  1.000000  0.577350 -0.000000 )  
               b(2) = (  0.000000  1.154701  0.000000 )  
               b(3) = (  0.000000 -0.000000  0.574713 )  


     PseudoPot. # 1 for Fe read from file:
     ./Fe.pbe-spn-kjpaw_psl.0.2.1.UPF
     MD5 check sum: a0a08122d52b112de96d1da1d7dd020f
     Pseudo is Projector augmented-wave + core cor, Zval = 16.0
     Generated using "atomic" code by A. Dal Corso  v.5.0.2 svn rev. 9415
     Shape of augmentation charge: PSQ
     Using radial grid of 1191 points,  6 beta functions with: 
                l(1) =   0
                l(2) =   0
                l(3) =   1
                l(4) =   1
                l(5) =   2
                l(6) =   2
     Q(r) pseudized with 0 coefficients 


     atomic species   valence    mass     pseudopotential
        Fe            16.00    55.85000     Fe( 1.00)

     Starting magnetic structure 
     atomic species   magnetization
        Fe           0.700

     24 Sym. Ops., with inversion, found (12 have fractional translation)



   Cartesian axes

     site n.     atom                  positions (alat units)
         1           Fe  tau(   1) = (  -0.0000000   0.5773503   0.4350000  )
         2           Fe  tau(   2) = (   0.5000000   0.2886751   1.3050000  )

     number of k points=   128  Marzari-Vanderbilt smearing, width (Ry)=  0.0250

     Number of k-points >= 100: set verbosity='high' to print them.

     Dense  grid:    15833 G-vectors     FFT dimensions: (  27,  27,  48)

     Smooth grid:    11263 G-vectors     FFT dimensions: (  25,  25,  45)

     Largest allocated arrays     est. size (Mb)     dimensions
        Kohn-Sham Wavefunctions         0.44 Mb     (    1438,   20)
        NL pseudopotentials             0.79 Mb     (    1438,   36)
        Each V/rho on FFT grid          1.07 Mb     (   34992,   2)
        Each G-vector array             0.12 Mb     (   15833)
        G-vector shells                 0.01 Mb     (     829)
     Largest temporary arrays     est. size (Mb)     dimensions
        Auxiliary wavefunctions         1.76 Mb     (    1438,   80)
        Each subspace H/S matrix        0.10 Mb     (      80,   80)
        Each <psi_i|beta_j> matrix      0.01 Mb     (      36,   20)
        Arrays for rho mixing           4.27 Mb     (   34992,    8)

     Check: negative/imaginary core charge=   -0.000319    0.000000

     Initial potential from superposition of free atoms

     starting charge   31.99912, renormalised to   32.00000
     Starting wfc are   26 randomized atomic wfcs

     total cpu time spent up to now is        8.5 secs

     Self-consistent Calculation

     iteration #  1     ecut=    50.00 Ry     beta=0.70
     Davidson diagonalization with overlap
     ethr =  1.00E-02,  avg # of iterations =  1.9

     negative rho (up, down):  0.000E+00 1.076E-03

     Magnetic moment per site:
     atom:    1    charge:   14.5955    magn:    5.9394    constr:    0.0000
     atom:    2    charge:   14.5955    magn:    5.9394    constr:    0.0000

     total cpu time spent up to now is       21.5 secs

     total energy              =    -657.96752599 Ry
     Harris-Foulkes estimate   =    -656.24793499 Ry
     estimated scf accuracy    <       2.84090335 Ry

     total magnetization       =     8.00 Bohr mag/cell
     absolute magnetization    =     8.26 Bohr mag/cell

     iteration #  2     ecut=    50.00 Ry     beta=0.70
     Davidson diagonalization with overlap
     ethr =  8.88E-03,  avg # of iterations =  1.6

     negative rho (up, down):  0.000E+00 1.053E-03

     Magnetic moment per site:
     atom:    1    charge:   14.8223    magn:    4.0149    constr:    0.0000
     atom:    2    charge:   14.8223    magn:    4.0149    constr:    0.0000

     total cpu time spent up to now is       33.4 secs

     total energy              =    -658.14366650 Ry
     Harris-Foulkes estimate   =    -658.17971252 Ry
     estimated scf accuracy    <       0.83010335 Ry

     total magnetization       =     6.57 Bohr mag/cell
     absolute magnetization    =     6.86 Bohr mag/cell

     iteration #  3     ecut=    50.00 Ry     beta=0.70
     Davidson diagonalization with overlap
     ethr =  2.59E-03,  avg # of iterations =  3.0

     negative rho (up, down):  0.000E+00 1.232E-03

     Magnetic moment per site:
     atom:    1    charge:   14.7069    magn:    3.0412    constr:    0.0000
     atom:    2    charge:   14.7069    magn:    3.0412    constr:    0.0000

     total cpu time spent up to now is       48.2 secs

     total energy              =    -658.17529166 Ry
     Harris-Foulkes estimate   =    -658.65057055 Ry
     estimated scf accuracy    <       1.33111728 Ry

     total magnetization       =     6.64 Bohr mag/cell
     absolute magnetization    =     6.92 Bohr mag/cell

     iteration #  4     ecut=    50.00 Ry     beta=0.70
     Davidson diagonalization with overlap
     ethr =  2.59E-03,  avg # of iterations =  2.7

     negative rho (up, down):  0.000E+00 1.034E-03

     Magnetic moment per site:
     atom:    1    charge:   14.7621    magn:    3.0306    constr:    0.0000
     atom:    2    charge:   14.7621    magn:    3.0306    constr:    0.0000

     total cpu time spent up to now is       62.9 secs

     total energy              =    -658.40475518 Ry
     Harris-Foulkes estimate   =    -658.40501159 Ry
     estimated scf accuracy    <       0.00638848 Ry

     total magnetization       =     5.91 Bohr mag/cell
     absolute magnetization    =     6.27 Bohr mag/cell

     iteration #  5     ecut=    50.00 Ry     beta=0.70
     Davidson diagonalization with overlap
     ethr =  2.00E-05,  avg # of iterations =  3.2

     negative rho (up, down):  0.000E+00 1.037E-03

     Magnetic moment per site:
     atom:    1    charge:   14.7544    magn:    3.0341    constr:    0.0000
     atom:    2    charge:   14.7544    magn:    3.0341    constr:    0.0000

     total cpu time spent up to now is       82.1 secs

     total energy              =    -658.41139764 Ry
     Harris-Foulkes estimate   =    -658.41056508 Ry
     estimated scf accuracy    <       0.00073585 Ry

     total magnetization       =     5.93 Bohr mag/cell
     absolute magnetization    =     6.27 Bohr mag/cell

     iteration #  6     ecut=    50.00 Ry     beta=0.70
     Davidson diagonalization with overlap
     ethr =  2.30E-06,  avg # of iterations =  2.0

     negative rho (up, down):  0.000E+00 9.824E-04

     Magnetic moment per site:
     atom:    1    charge:   14.7539    magn:    3.0225    constr:    0.0000
     atom:    2    charge:   14.7539    magn:    3.0225    constr:    0.0000

     total cpu time spent up to now is       98.3 secs

     total energy              =    -658.41005482 Ry
     Harris-Foulkes estimate   =    -658.41159813 Ry
     estimated scf accuracy    <       0.00049282 Ry

     total magnetization       =     5.93 Bohr mag/cell
     absolute magnetization    =     6.25 Bohr mag/cell

     iteration #  7     ecut=    50.00 Ry     beta=0.70
     Davidson diagonalization with overlap
     ethr =  1.54E-06,  avg # of iterations =  3.2

     negative rho (up, down):  0.000E+00 1.014E-03

     Magnetic moment per site:
     atom:    1    charge:   14.7542    magn:    3.0305    constr:    0.0000
     atom:    2    charge:   14.7542    magn:    3.0305    constr:    0.0000

     total cpu time spent up to now is      127.5 secs

     total energy              =    -658.41235897 Ry
     Harris-Foulkes estimate   =    -658.41104124 Ry
     estimated scf accuracy    <       0.00038731 Ry

     total magnetization       =     5.92 Bohr mag/cell
     absolute magnetization    =     6.21 Bohr mag/cell

     iteration #  8     ecut=    50.00 Ry     beta=0.70
     Davidson diagonalization with overlap
     ethr =  1.21E-06,  avg # of iterations =  2.3

     negative rho (up, down):  0.000E+00 1.013E-03

     Magnetic moment per site:
     atom:    1    charge:   14.7548    magn:    3.0291    constr:    0.0000
     atom:    2    charge:   14.7548    magn:    3.0291    constr:    0.0000

     total cpu time spent up to now is      153.4 secs

     total energy              =    -658.41252290 Ry
     Harris-Foulkes estimate   =    -658.41251645 Ry
     estimated scf accuracy    <       0.00025152 Ry

     total magnetization       =     5.92 Bohr mag/cell
     absolute magnetization    =     6.22 Bohr mag/cell

     iteration #  9     ecut=    50.00 Ry     beta=0.70
     Davidson diagonalization with overlap
     ethr =  7.86E-07,  avg # of iterations =  1.0

     negative rho (up, down):  0.000E+00 1.003E-03

     Magnetic moment per site:
     atom:    1    charge:   14.7557    magn:    3.0199    constr:    0.0000
     atom:    2    charge:   14.7557    magn:    3.0199    constr:    0.0000

     total cpu time spent up to now is      171.3 secs

     total energy              =    -658.41268521 Ry
     Harris-Foulkes estimate   =    -658.41253048 Ry
     estimated scf accuracy    <       0.00024250 Ry

     total magnetization       =     5.92 Bohr mag/cell
     absolute magnetization    =     6.22 Bohr mag/cell

     iteration # 10     ecut=    50.00 Ry     beta=0.70
     Davidson diagonalization with overlap
     ethr =  7.58E-07,  avg # of iterations =  2.2

     negative rho (up, down):  0.000E+00 9.984E-04

     Magnetic moment per site:
     atom:    1    charge:   14.7557    magn:    3.0174    constr:    0.0000
     atom:    2    charge:   14.7557    magn:    3.0174    constr:    0.0000

     total cpu time spent up to now is      188.0 secs

     total energy              =    -658.41275006 Ry
     Harris-Foulkes estimate   =    -658.41276761 Ry
     estimated scf accuracy    <       0.00000466 Ry

     total magnetization       =     5.91 Bohr mag/cell
     absolute magnetization    =     6.21 Bohr mag/cell

     iteration # 11     ecut=    50.00 Ry     beta=0.70
     Davidson diagonalization with overlap
     ethr =  1.45E-08,  avg # of iterations =  4.1

     negative rho (up, down):  0.000E+00 9.977E-04

     Magnetic moment per site:
     atom:    1    charge:   14.7552    magn:    3.0176    constr:    0.0000
     atom:    2    charge:   14.7552    magn:    3.0176    constr:    0.0000

     total cpu time spent up to now is      206.4 secs

     total energy              =    -658.41281045 Ry
     Harris-Foulkes estimate   =    -658.41276808 Ry
     estimated scf accuracy    <       0.00000360 Ry

     total magnetization       =     5.91 Bohr mag/cell
     absolute magnetization    =     6.20 Bohr mag/cell

     iteration # 12     ecut=    50.00 Ry     beta=0.70
     Davidson diagonalization with overlap
     ethr =  1.12E-08,  avg # of iterations =  1.8

     negative rho (up, down):  0.000E+00 9.981E-04

     Magnetic moment per site:
     atom:    1    charge:   14.7554    magn:    3.0177    constr:    0.0000
     atom:    2    charge:   14.7554    magn:    3.0177    constr:    0.0000

     total cpu time spent up to now is      218.1 secs

     total energy              =    -658.41281371 Ry
     Harris-Foulkes estimate   =    -658.41281098 Ry
     estimated scf accuracy    <       0.00000022 Ry

     total magnetization       =     5.91 Bohr mag/cell
     absolute magnetization    =     6.20 Bohr mag/cell

     iteration # 13     ecut=    50.00 Ry     beta=0.70
     Davidson diagonalization with overlap
     ethr =  6.93E-10,  avg # of iterations =  2.9

     negative rho (up, down):  0.000E+00 9.971E-04

     Magnetic moment per site:
     atom:    1    charge:   14.7555    magn:    3.0166    constr:    0.0000
     atom:    2    charge:   14.7555    magn:    3.0166    constr:    0.0000

     total cpu time spent up to now is      233.7 secs

     total energy              =    -658.41281252 Ry
     Harris-Foulkes estimate   =    -658.41281392 Ry
     estimated scf accuracy    <       0.00000022 Ry

     total magnetization       =     5.91 Bohr mag/cell
     absolute magnetization    =     6.20 Bohr mag/cell

     iteration # 14     ecut=    50.00 Ry     beta=0.70
     Davidson diagonalization with overlap
     ethr =  6.92E-10,  avg # of iterations =  3.4

     negative rho (up, down):  0.000E+00 9.974E-04

     Magnetic moment per site:
     atom:    1    charge:   14.7555    magn:    3.0170    constr:    0.0000
     atom:    2    charge:   14.7555    magn:    3.0170    constr:    0.0000

     total cpu time spent up to now is      252.7 secs

     total energy              =    -658.41281461 Ry
     Harris-Foulkes estimate   =    -658.41281312 Ry
     estimated scf accuracy    <       0.00000037 Ry

     total magnetization       =     5.91 Bohr mag/cell
     absolute magnetization    =     6.20 Bohr mag/cell

     iteration # 15     ecut=    50.00 Ry     beta=0.70
     Davidson diagonalization with overlap
     ethr =  6.92E-10,  avg # of iterations =  2.2

     negative rho (up, down):  0.000E+00 9.974E-04

     Magnetic moment per site:
     atom:    1    charge:   14.7555    magn:    3.0170    constr:    0.0000
     atom:    2    charge:   14.7555    magn:    3.0170    constr:    0.0000

     total cpu time spent up to now is      272.1 secs

     total energy              =    -658.41281469 Ry
     Harris-Foulkes estimate   =    -658.41281467 Ry
     estimated scf accuracy    <       0.00000001 Ry

     total magnetization       =     5.91 Bohr mag/cell
     absolute magnetization    =     6.20 Bohr mag/cell

     iteration # 16     ecut=    50.00 Ry     beta=0.70
     Davidson diagonalization with overlap
     ethr =  4.18E-11,  avg # of iterations =  2.5

     negative rho (up, down):  0.000E+00 9.974E-04

     Magnetic moment per site:
     atom:    1    charge:   14.7555    magn:    3.0169    constr:    0.0000
     atom:    2    charge:   14.7555    magn:    3.0169    constr:    0.0000

     total cpu time spent up to now is      290.4 secs

     total energy              =    -658.41281470 Ry
     Harris-Foulkes estimate   =    -658.41281469 Ry
     estimated scf accuracy    <       0.00000002 Ry

     total magnetization       =     5.91 Bohr mag/cell
     absolute magnetization    =     6.20 Bohr mag/cell

     iteration # 17     ecut=    50.00 Ry     beta=0.70
     Davidson diagonalization with overlap
     ethr =  4.18E-11,  avg # of iterations =  1.3

     negative rho (up, down):  0.000E+00 9.973E-04

     Magnetic moment per site:
     atom:    1    charge:   14.7555    magn:    3.0169    constr:    0.0000
     atom:    2    charge:   14.7555    magn:    3.0169    constr:    0.0000

     total cpu time spent up to now is      306.2 secs

     total energy              =    -658.41281470 Ry
     Harris-Foulkes estimate   =    -658.41281470 Ry
     estimated scf accuracy    <       0.00000001 Ry

     total magnetization       =     5.91 Bohr mag/cell
     absolute magnetization    =     6.20 Bohr mag/cell

     iteration # 18     ecut=    50.00 Ry     beta=0.70
     Davidson diagonalization with overlap
     ethr =  3.43E-11,  avg # of iterations =  2.4

     negative rho (up, down):  0.000E+00 9.973E-04

     Magnetic moment per site:
     atom:    1    charge:   14.7555    magn:    3.0169    constr:    0.0000
     atom:    2    charge:   14.7555    magn:    3.0169    constr:    0.0000

     total cpu time spent up to now is      323.1 secs

     End of self-consistent calculation

     Number of k-points >= 100: set verbosity='high' to print the bands.

     the Fermi energy is    10.9550 ev

!    total energy              =    -658.41281471 Ry
     Harris-Foulkes estimate   =    -658.41281470 Ry
     estimated scf accuracy    <          8.8E-11 Ry

     total all-electron energy =     -5091.005886 Ry

     The total energy is the sum of the following terms:

     one-electron contribution =    -296.47933893 Ry
     hartree contribution      =     160.52984506 Ry
     xc contribution           =     -69.41761661 Ry
     ewald contribution        =    -300.76700870 Ry
     one-center paw contrib.   =    -152.27884364 Ry
     smearing contrib. (-TS)   =       0.00014811 Ry

     total magnetization       =     5.91 Bohr mag/cell
     absolute magnetization    =     6.20 Bohr mag/cell

     convergence has been achieved in  18 iterations

     Forces acting on atoms (Ry/au):


     negative rho (up, down):  0.000E+00 9.973E-04
     atom    1 type  1   force =    -0.00000000   -0.00000000    0.00000000
     atom    2 type  1   force =     0.00000000    0.00000000    0.00000000

     Total force =     0.000000     Total SCF correction =     0.000000


     entering subroutine stress ...


     negative rho (up, down):  0.000E+00 9.973E-04
          total   stress  (Ry/bohr**3)                   (kbar)     P= -288.98
  -0.00203645   0.00000000   0.00000000       -299.57      0.00      0.00
   0.00000000  -0.00203645   0.00000000          0.00   -299.57      0.00
   0.00000000   0.00000000  -0.00182035          0.00      0.00   -267.78


     Writing output data file Fe_hcp.save

     init_run     :      7.68s CPU      8.08s WALL (       1 calls)
     electrons    :    285.95s CPU    314.65s WALL (       1 calls)
     forces       :      1.36s CPU      1.37s WALL (       1 calls)
     stress       :      3.68s CPU      4.30s WALL (       1 calls)

     Called by init_run:
     wfcinit      :      5.85s CPU      6.05s WALL (       1 calls)
     potinit      :      1.09s CPU      1.19s WALL (       1 calls)

     Called by electrons:
     c_bands      :    226.93s CPU    245.78s WALL (      18 calls)
     sum_band     :     36.18s CPU     41.48s WALL (      18 calls)
     v_of_rho     :      1.26s CPU      1.46s WALL (      19 calls)
     newd         :      1.73s CPU      2.22s WALL (      19 calls)
     mix_rho      :      0.23s CPU      0.35s WALL (      18 calls)

     Called by c_bands:
     init_us_2    :      3.16s CPU      3.70s WALL (    4992 calls)
     cegterg      :    218.15s CPU    235.33s WALL (    2304 calls)

     Called by *egterg:
     h_psi        :    173.79s CPU    197.23s WALL (    8026 calls)
     s_psi        :      8.01s CPU      5.60s WALL (    8026 calls)
     g_psi        :      1.00s CPU      1.13s WALL (    5594 calls)
     cdiaghg      :      8.55s CPU     10.21s WALL (    7898 calls)

     Called by h_psi:
     add_vuspsi   :      8.85s CPU      6.17s WALL (    8026 calls)

     General routines
     calbec       :     12.36s CPU      8.33s WALL (   10586 calls)
     fft          :      0.76s CPU      0.88s WALL (     623 calls)
     ffts         :      0.06s CPU      0.06s WALL (      74 calls)
     fftw         :    166.47s CPU    197.37s WALL (  285666 calls)
     interpolate  :      0.17s CPU      0.20s WALL (      74 calls)
     davcio       :      0.00s CPU      0.08s WALL (     128 calls)


     PAW routines
     PAW_pot      :     20.65s CPU     24.39s WALL (      19 calls)
     PAW_symme    :      0.03s CPU      0.03s WALL (      37 calls)

     PWSCF        :  4m59.26s CPU     5m29.31s WALL


   This run was terminated on:  23:57:28  11May2015            

=------------------------------------------------------------------------------=
   JOB DONE.
=------------------------------------------------------------------------------=
