
     Program PWSCF v.5.1.2 starts on 11May2015 at 19:23:26 

     This program is part of the open-source Quantum ESPRESSO suite
     for quantum simulation of materials; please cite
         "P. Giannozzi et al., J. Phys.:Condens. Matter 21 395502 (2009);
          URL http://www.quantum-espresso.org", 
     in publications or presentations arising from this work. More details at
     http://www.quantum-espresso.org/quote

     Serial version
     Reading input from Fe_HCP_5.45_174_7_4.pw.in

     Current dimensions of program PWSCF are:
     Max number of different atomic species (ntypx) = 10
     Max number of k-points (npk) =  40000
     Max angular momentum in pseudopotentials (lmaxx) =  3
               file Fe.pbe-spn-kjpaw_psl.0.2.1.UPF: wavefunction(s)  3D renormalized

     G-vector sticks info
     --------------------
     sticks:   dense  smooth     PW     G-vecs:    dense   smooth      PW
     Sum         511     421    121                16301    11719    1979

     Generating pointlists ...
     new r_m :   0.4125 (alat units)  2.2481 (a.u.) for type    1


     bravais-lattice index     =            4
     lattice parameter (alat)  =       5.4500  a.u.
     unit-cell volume          =     243.9323 (a.u.)^3
     number of atoms/cell      =            2
     number of atomic types    =            1
     number of electrons       =        32.00
     number of Kohn-Sham states=           20
     kinetic-energy cutoff     =      50.0000  Ry
     charge density cutoff     =     250.0000  Ry
     convergence threshold     =      1.0E-08
     mixing beta               =       0.7000
     number of iterations used =            8  plain     mixing
     Exchange-correlation      =  SLA  PW   PBX  PBC ( 1  4  3  4 0 0)

     celldm(1)=   5.450000  celldm(2)=   0.000000  celldm(3)=   1.740000
     celldm(4)=   0.000000  celldm(5)=   0.000000  celldm(6)=   0.000000

     crystal axes: (cart. coord. in units of alat)
               a(1) = (   1.000000   0.000000   0.000000 )  
               a(2) = (  -0.500000   0.866025   0.000000 )  
               a(3) = (   0.000000   0.000000   1.740000 )  

     reciprocal axes: (cart. coord. in units 2 pi/alat)
               b(1) = (  1.000000  0.577350 -0.000000 )  
               b(2) = (  0.000000  1.154701  0.000000 )  
               b(3) = (  0.000000 -0.000000  0.574713 )  


     PseudoPot. # 1 for Fe read from file:
     ./Fe.pbe-spn-kjpaw_psl.0.2.1.UPF
     MD5 check sum: a0a08122d52b112de96d1da1d7dd020f
     Pseudo is Projector augmented-wave + core cor, Zval = 16.0
     Generated using "atomic" code by A. Dal Corso  v.5.0.2 svn rev. 9415
     Shape of augmentation charge: PSQ
     Using radial grid of 1191 points,  6 beta functions with: 
                l(1) =   0
                l(2) =   0
                l(3) =   1
                l(4) =   1
                l(5) =   2
                l(6) =   2
     Q(r) pseudized with 0 coefficients 


     atomic species   valence    mass     pseudopotential
        Fe            16.00    55.85000     Fe( 1.00)

     Starting magnetic structure 
     atomic species   magnetization
        Fe           0.700

     24 Sym. Ops., with inversion, found (12 have fractional translation)



   Cartesian axes

     site n.     atom                  positions (alat units)
         1           Fe  tau(   1) = (  -0.0000000   0.5773503   0.4350000  )
         2           Fe  tau(   2) = (   0.5000000   0.2886751   1.3050000  )

     number of k points=    48  Marzari-Vanderbilt smearing, width (Ry)=  0.0250
                       cart. coord. in units 2pi/alat
        k(    1) = (   0.0000000   0.0000000   0.0000000), wk =   0.0051020
        k(    2) = (   0.0000000   0.0000000   0.1436782), wk =   0.0102041
        k(    3) = (   0.0000000   0.0000000  -0.2873563), wk =   0.0051020
        k(    4) = (   0.0000000   0.1649572   0.0000000), wk =   0.0306122
        k(    5) = (   0.0000000   0.1649572   0.1436782), wk =   0.0612245
        k(    6) = (   0.0000000   0.1649572  -0.2873563), wk =   0.0306122
        k(    7) = (   0.0000000   0.3299144   0.0000000), wk =   0.0306122
        k(    8) = (   0.0000000   0.3299144   0.1436782), wk =   0.0612245
        k(    9) = (   0.0000000   0.3299144  -0.2873563), wk =   0.0306122
        k(   10) = (   0.0000000   0.4948717   0.0000000), wk =   0.0306122
        k(   11) = (   0.0000000   0.4948717   0.1436782), wk =   0.0612245
        k(   12) = (   0.0000000   0.4948717  -0.2873563), wk =   0.0306122
        k(   13) = (   0.1428571   0.2474358   0.0000000), wk =   0.0306122
        k(   14) = (   0.1428571   0.2474358   0.1436782), wk =   0.0612245
        k(   15) = (   0.1428571   0.2474358  -0.2873563), wk =   0.0306122
        k(   16) = (   0.1428571   0.4123930   0.0000000), wk =   0.0612245
        k(   17) = (   0.1428571   0.4123930   0.1436782), wk =   0.1224490
        k(   18) = (   0.1428571   0.4123930  -0.2873563), wk =   0.0612245
        k(   19) = (   0.1428571   0.5773503   0.0000000), wk =   0.0306122
        k(   20) = (   0.1428571   0.5773503   0.1436782), wk =   0.0612245
        k(   21) = (   0.1428571   0.5773503  -0.2873563), wk =   0.0306122
        k(   22) = (   0.2857143   0.4948717   0.0000000), wk =   0.0306122
        k(   23) = (   0.2857143   0.4948717   0.1436782), wk =   0.0612245
        k(   24) = (   0.2857143   0.4948717  -0.2873563), wk =   0.0306122
        k(   25) = (   0.0000000   0.0000000   0.0000000), wk =   0.0051020
        k(   26) = (   0.0000000   0.0000000   0.1436782), wk =   0.0102041
        k(   27) = (   0.0000000   0.0000000  -0.2873563), wk =   0.0051020
        k(   28) = (   0.0000000   0.1649572   0.0000000), wk =   0.0306122
        k(   29) = (   0.0000000   0.1649572   0.1436782), wk =   0.0612245
        k(   30) = (   0.0000000   0.1649572  -0.2873563), wk =   0.0306122
        k(   31) = (   0.0000000   0.3299144   0.0000000), wk =   0.0306122
        k(   32) = (   0.0000000   0.3299144   0.1436782), wk =   0.0612245
        k(   33) = (   0.0000000   0.3299144  -0.2873563), wk =   0.0306122
        k(   34) = (   0.0000000   0.4948717   0.0000000), wk =   0.0306122
        k(   35) = (   0.0000000   0.4948717   0.1436782), wk =   0.0612245
        k(   36) = (   0.0000000   0.4948717  -0.2873563), wk =   0.0306122
        k(   37) = (   0.1428571   0.2474358   0.0000000), wk =   0.0306122
        k(   38) = (   0.1428571   0.2474358   0.1436782), wk =   0.0612245
        k(   39) = (   0.1428571   0.2474358  -0.2873563), wk =   0.0306122
        k(   40) = (   0.1428571   0.4123930   0.0000000), wk =   0.0612245
        k(   41) = (   0.1428571   0.4123930   0.1436782), wk =   0.1224490
        k(   42) = (   0.1428571   0.4123930  -0.2873563), wk =   0.0612245
        k(   43) = (   0.1428571   0.5773503   0.0000000), wk =   0.0306122
        k(   44) = (   0.1428571   0.5773503   0.1436782), wk =   0.0612245
        k(   45) = (   0.1428571   0.5773503  -0.2873563), wk =   0.0306122
        k(   46) = (   0.2857143   0.4948717   0.0000000), wk =   0.0306122
        k(   47) = (   0.2857143   0.4948717   0.1436782), wk =   0.0612245
        k(   48) = (   0.2857143   0.4948717  -0.2873563), wk =   0.0306122

     Dense  grid:    16301 G-vectors     FFT dimensions: (  27,  27,  48)

     Smooth grid:    11719 G-vectors     FFT dimensions: (  25,  25,  45)

     Largest allocated arrays     est. size (Mb)     dimensions
        Kohn-Sham Wavefunctions         0.45 Mb     (    1471,   20)
        NL pseudopotentials             0.81 Mb     (    1471,   36)
        Each V/rho on FFT grid          1.07 Mb     (   34992,   2)
        Each G-vector array             0.12 Mb     (   16301)
        G-vector shells                 0.01 Mb     (     848)
     Largest temporary arrays     est. size (Mb)     dimensions
        Auxiliary wavefunctions         1.80 Mb     (    1471,   80)
        Each subspace H/S matrix        0.10 Mb     (      80,   80)
        Each <psi_i|beta_j> matrix      0.01 Mb     (      36,   20)
        Arrays for rho mixing           4.27 Mb     (   34992,    8)

     Check: negative/imaginary core charge=   -0.000313    0.000000

     Initial potential from superposition of free atoms

     starting charge   31.99912, renormalised to   32.00000
     Starting wfc are   26 randomized atomic wfcs

     total cpu time spent up to now is        5.3 secs

     Self-consistent Calculation

     iteration #  1     ecut=    50.00 Ry     beta=0.70
     Davidson diagonalization with overlap
     ethr =  1.00E-02,  avg # of iterations =  1.9

     negative rho (up, down):  0.000E+00 1.121E-03

     Magnetic moment per site:
     atom:    1    charge:   14.6123    magn:    5.9502    constr:    0.0000
     atom:    2    charge:   14.6123    magn:    5.9502    constr:    0.0000

     total cpu time spent up to now is       11.7 secs

     total energy              =    -657.95647205 Ry
     Harris-Foulkes estimate   =    -656.24322254 Ry
     estimated scf accuracy    <       2.83497651 Ry

     total magnetization       =     8.00 Bohr mag/cell
     absolute magnetization    =     8.29 Bohr mag/cell

     iteration #  2     ecut=    50.00 Ry     beta=0.70
     Davidson diagonalization with overlap
     ethr =  8.86E-03,  avg # of iterations =  1.6

     negative rho (up, down):  0.000E+00 1.063E-03

     Magnetic moment per site:
     atom:    1    charge:   14.8440    magn:    4.0380    constr:    0.0000
     atom:    2    charge:   14.8440    magn:    4.0380    constr:    0.0000

     total cpu time spent up to now is       16.9 secs

     total energy              =    -658.11364142 Ry
     Harris-Foulkes estimate   =    -658.17408032 Ry
     estimated scf accuracy    <       0.88658438 Ry

     total magnetization       =     6.43 Bohr mag/cell
     absolute magnetization    =     6.81 Bohr mag/cell

     iteration #  3     ecut=    50.00 Ry     beta=0.70
     Davidson diagonalization with overlap
     ethr =  2.77E-03,  avg # of iterations =  3.1

     negative rho (up, down):  0.000E+00 1.248E-03

     Magnetic moment per site:
     atom:    1    charge:   14.7279    magn:    2.9820    constr:    0.0000
     atom:    2    charge:   14.7279    magn:    2.9820    constr:    0.0000

     total cpu time spent up to now is       23.1 secs

     total energy              =    -658.15599346 Ry
     Harris-Foulkes estimate   =    -658.65933188 Ry
     estimated scf accuracy    <       1.44223392 Ry

     total magnetization       =     6.57 Bohr mag/cell
     absolute magnetization    =     6.90 Bohr mag/cell

     iteration #  4     ecut=    50.00 Ry     beta=0.70
     Davidson diagonalization with overlap
     ethr =  2.77E-03,  avg # of iterations =  2.7

     negative rho (up, down):  0.000E+00 1.099E-03

     Magnetic moment per site:
     atom:    1    charge:   14.7722    magn:    3.0967    constr:    0.0000
     atom:    2    charge:   14.7722    magn:    3.0967    constr:    0.0000

     total cpu time spent up to now is       29.3 secs

     total energy              =    -658.39492114 Ry
     Harris-Foulkes estimate   =    -658.39372510 Ry
     estimated scf accuracy    <       0.00429488 Ry

     total magnetization       =     5.96 Bohr mag/cell
     absolute magnetization    =     6.33 Bohr mag/cell

     iteration #  5     ecut=    50.00 Ry     beta=0.70
     Davidson diagonalization with overlap
     ethr =  1.34E-05,  avg # of iterations =  3.5

     negative rho (up, down):  0.000E+00 1.092E-03

     Magnetic moment per site:
     atom:    1    charge:   14.7702    magn:    3.0866    constr:    0.0000
     atom:    2    charge:   14.7702    magn:    3.0866    constr:    0.0000

     total cpu time spent up to now is       37.4 secs

     total energy              =    -658.40125408 Ry
     Harris-Foulkes estimate   =    -658.40039527 Ry
     estimated scf accuracy    <       0.00118587 Ry

     total magnetization       =     6.04 Bohr mag/cell
     absolute magnetization    =     6.36 Bohr mag/cell

     iteration #  6     ecut=    50.00 Ry     beta=0.70
     Davidson diagonalization with overlap
     ethr =  3.71E-06,  avg # of iterations =  1.9

     negative rho (up, down):  0.000E+00 1.031E-03

     Magnetic moment per site:
     atom:    1    charge:   14.7721    magn:    3.0705    constr:    0.0000
     atom:    2    charge:   14.7721    magn:    3.0705    constr:    0.0000

     total cpu time spent up to now is       42.9 secs

     total energy              =    -658.39824983 Ry
     Harris-Foulkes estimate   =    -658.40152366 Ry
     estimated scf accuracy    <       0.00065322 Ry

     total magnetization       =     6.04 Bohr mag/cell
     absolute magnetization    =     6.34 Bohr mag/cell

     iteration #  7     ecut=    50.00 Ry     beta=0.70
     Davidson diagonalization with overlap
     ethr =  2.04E-06,  avg # of iterations =  3.4

     negative rho (up, down):  0.000E+00 1.069E-03

     Magnetic moment per site:
     atom:    1    charge:   14.7705    magn:    3.0792    constr:    0.0000
     atom:    2    charge:   14.7705    magn:    3.0792    constr:    0.0000

     total cpu time spent up to now is       50.3 secs

     total energy              =    -658.40238330 Ry
     Harris-Foulkes estimate   =    -658.39970843 Ry
     estimated scf accuracy    <       0.00089917 Ry

     total magnetization       =     6.03 Bohr mag/cell
     absolute magnetization    =     6.29 Bohr mag/cell

     iteration #  8     ecut=    50.00 Ry     beta=0.70
     Davidson diagonalization with overlap
     ethr =  2.04E-06,  avg # of iterations =  2.4

     negative rho (up, down):  0.000E+00 1.068E-03

     Magnetic moment per site:
     atom:    1    charge:   14.7709    magn:    3.0784    constr:    0.0000
     atom:    2    charge:   14.7709    magn:    3.0784    constr:    0.0000

     total cpu time spent up to now is       56.6 secs

     total energy              =    -658.40265342 Ry
     Harris-Foulkes estimate   =    -658.40264684 Ry
     estimated scf accuracy    <       0.00025298 Ry

     total magnetization       =     6.03 Bohr mag/cell
     absolute magnetization    =     6.31 Bohr mag/cell

     iteration #  9     ecut=    50.00 Ry     beta=0.70
     Davidson diagonalization with overlap
     ethr =  7.91E-07,  avg # of iterations =  1.0

     negative rho (up, down):  0.000E+00 1.063E-03

     Magnetic moment per site:
     atom:    1    charge:   14.7715    magn:    3.0729    constr:    0.0000
     atom:    2    charge:   14.7715    magn:    3.0729    constr:    0.0000

     total cpu time spent up to now is       61.6 secs

     total energy              =    -658.40279653 Ry
     Harris-Foulkes estimate   =    -658.40266244 Ry
     estimated scf accuracy    <       0.00024706 Ry

     total magnetization       =     6.02 Bohr mag/cell
     absolute magnetization    =     6.30 Bohr mag/cell

     iteration # 10     ecut=    50.00 Ry     beta=0.70
     Davidson diagonalization with overlap
     ethr =  7.72E-07,  avg # of iterations =  1.6

     negative rho (up, down):  0.000E+00 1.049E-03

     Magnetic moment per site:
     atom:    1    charge:   14.7729    magn:    3.0615    constr:    0.0000
     atom:    2    charge:   14.7729    magn:    3.0615    constr:    0.0000

     total cpu time spent up to now is       66.8 secs

     total energy              =    -658.40271340 Ry
     Harris-Foulkes estimate   =    -658.40281573 Ry
     estimated scf accuracy    <       0.00008915 Ry

     total magnetization       =     6.02 Bohr mag/cell
     absolute magnetization    =     6.30 Bohr mag/cell

     iteration # 11     ecut=    50.00 Ry     beta=0.70
     Davidson diagonalization with overlap
     ethr =  2.79E-07,  avg # of iterations =  2.9

     negative rho (up, down):  0.000E+00 1.052E-03

     Magnetic moment per site:
     atom:    1    charge:   14.7723    magn:    3.0641    constr:    0.0000
     atom:    2    charge:   14.7723    magn:    3.0641    constr:    0.0000

     total cpu time spent up to now is       73.4 secs

     total energy              =    -658.40290549 Ry
     Harris-Foulkes estimate   =    -658.40279661 Ry
     estimated scf accuracy    <       0.00003534 Ry

     total magnetization       =     6.02 Bohr mag/cell
     absolute magnetization    =     6.28 Bohr mag/cell

     iteration # 12     ecut=    50.00 Ry     beta=0.70
     Davidson diagonalization with overlap
     ethr =  1.10E-07,  avg # of iterations =  2.1

     negative rho (up, down):  0.000E+00 1.053E-03

     Magnetic moment per site:
     atom:    1    charge:   14.7721    magn:    3.0644    constr:    0.0000
     atom:    2    charge:   14.7721    magn:    3.0644    constr:    0.0000

     total cpu time spent up to now is       79.1 secs

     total energy              =    -658.40291547 Ry
     Harris-Foulkes estimate   =    -658.40290947 Ry
     estimated scf accuracy    <       0.00000010 Ry

     total magnetization       =     6.02 Bohr mag/cell
     absolute magnetization    =     6.28 Bohr mag/cell

     iteration # 13     ecut=    50.00 Ry     beta=0.70
     Davidson diagonalization with overlap
     ethr =  3.19E-10,  avg # of iterations =  4.1

     negative rho (up, down):  0.000E+00 1.053E-03

     Magnetic moment per site:
     atom:    1    charge:   14.7722    magn:    3.0643    constr:    0.0000
     atom:    2    charge:   14.7722    magn:    3.0643    constr:    0.0000

     total cpu time spent up to now is       87.4 secs

     total energy              =    -658.40291604 Ry
     Harris-Foulkes estimate   =    -658.40291592 Ry
     estimated scf accuracy    <       0.00000128 Ry

     total magnetization       =     6.02 Bohr mag/cell
     absolute magnetization    =     6.28 Bohr mag/cell

     iteration # 14     ecut=    50.00 Ry     beta=0.70
     Davidson diagonalization with overlap
     ethr =  3.19E-10,  avg # of iterations =  2.6

     negative rho (up, down):  0.000E+00 1.052E-03

     Magnetic moment per site:
     atom:    1    charge:   14.7723    magn:    3.0638    constr:    0.0000
     atom:    2    charge:   14.7723    magn:    3.0638    constr:    0.0000

     total cpu time spent up to now is       93.5 secs

     total energy              =    -658.40291624 Ry
     Harris-Foulkes estimate   =    -658.40291611 Ry
     estimated scf accuracy    <       0.00000085 Ry

     total magnetization       =     6.02 Bohr mag/cell
     absolute magnetization    =     6.28 Bohr mag/cell

     iteration # 15     ecut=    50.00 Ry     beta=0.70
     Davidson diagonalization with overlap
     ethr =  3.19E-10,  avg # of iterations =  3.4

     negative rho (up, down):  0.000E+00 1.052E-03

     Magnetic moment per site:
     atom:    1    charge:   14.7723    magn:    3.0637    constr:    0.0000
     atom:    2    charge:   14.7723    magn:    3.0637    constr:    0.0000

     total cpu time spent up to now is      100.7 secs

     total energy              =    -658.40291656 Ry
     Harris-Foulkes estimate   =    -658.40291647 Ry
     estimated scf accuracy    <       0.00000002 Ry

     total magnetization       =     6.02 Bohr mag/cell
     absolute magnetization    =     6.28 Bohr mag/cell

     iteration # 16     ecut=    50.00 Ry     beta=0.70
     Davidson diagonalization with overlap
     ethr =  5.16E-11,  avg # of iterations =  2.8

     negative rho (up, down):  0.000E+00 1.052E-03

     Magnetic moment per site:
     atom:    1    charge:   14.7723    magn:    3.0635    constr:    0.0000
     atom:    2    charge:   14.7723    magn:    3.0635    constr:    0.0000

     total cpu time spent up to now is      107.1 secs

     total energy              =    -658.40291657 Ry
     Harris-Foulkes estimate   =    -658.40291658 Ry
     estimated scf accuracy    <       0.00000001 Ry

     total magnetization       =     6.02 Bohr mag/cell
     absolute magnetization    =     6.28 Bohr mag/cell

     iteration # 17     ecut=    50.00 Ry     beta=0.70
     Davidson diagonalization with overlap
     ethr =  4.12E-11,  avg # of iterations =  3.1

     negative rho (up, down):  0.000E+00 1.052E-03

     Magnetic moment per site:
     atom:    1    charge:   14.7723    magn:    3.0636    constr:    0.0000
     atom:    2    charge:   14.7723    magn:    3.0636    constr:    0.0000

     total cpu time spent up to now is      113.5 secs

     End of self-consistent calculation

 ------ SPIN UP ------------


          k = 0.0000 0.0000 0.0000 (  1461 PWs)   bands (ev):

   -78.1131 -78.1066 -44.1822 -44.1822 -44.1750 -44.1750 -44.0629 -44.0066
     3.7635   6.7653   8.0143   8.0143   8.1284   8.1284   8.2192   8.2192
     8.2865   8.6453   8.6453   9.9746

          k = 0.0000 0.0000 0.1437 (  1461 PWs)   bands (ev):

   -78.1119 -78.1078 -44.1813 -44.1813 -44.1760 -44.1760 -44.0556 -44.0145
     4.1547   6.4145   7.9678   7.9678   8.0709   8.0709   8.2378   8.3459
     8.3459   8.6250   8.6250   8.7545

          k = 0.0000 0.0000-0.2874 (  1438 PWs)   bands (ev):

   -78.1095 -78.1095 -44.1786 -44.1786 -44.1786 -44.1786 -44.0344 -44.0344
     5.2294   5.2294   7.9813   7.9813   7.9813   7.9813   8.2085   8.2085
     8.5248   8.5248   8.5248   8.5248

          k = 0.0000 0.1650 0.0000 (  1451 PWs)   bands (ev):

   -78.1112 -78.1054 -44.1953 -44.1881 -44.1862 -44.1780 -44.0589 -44.0067
     4.2851   7.0798   7.8697   7.9012   8.0360   8.1329   8.1928   8.2001
     8.2995   8.4518   8.6662  11.1353

          k = 0.0000 0.1650 0.1437 (  1446 PWs)   bands (ev):

   -78.1102 -78.1063 -44.1945 -44.1894 -44.1848 -44.1788 -44.0516 -44.0143
     4.6608   6.7785   7.7693   7.8597   8.0504   8.0807   8.1676   8.2214
     8.3549   8.5303   8.6402   9.6586

          k = 0.0000 0.1650-0.2874 (  1446 PWs)   bands (ev):

   -78.1082 -78.1082 -44.1922 -44.1922 -44.1819 -44.1819 -44.0329 -44.0329
     5.6800   5.6800   7.7983   7.7983   8.0732   8.0732   8.1167   8.1167
     8.5310   8.5310   8.8207   8.8207

          k = 0.0000 0.3299 0.0000 (  1455 PWs)   bands (ev):

   -78.1074 -78.1030 -44.2248 -44.2180 -44.1947 -44.1841 -44.0487 -44.0098
     5.6667   7.2420   7.2553   7.8520   7.9516   7.9676   8.2103   8.6480
     8.6861   8.7075   8.9110  13.2456

          k = 0.0000 0.3299 0.1437 (  1455 PWs)   bands (ev):

   -78.1068 -78.1036 -44.2241 -44.2191 -44.1930 -44.1857 -44.0430 -44.0155
     5.9232   7.0330   7.3932   7.6790   8.0475   8.2062   8.2530   8.5056
     8.6805   8.7630   8.8906  10.8419

          k = 0.0000 0.3299-0.2874 (  1450 PWs)   bands (ev):

   -78.1051 -78.1051 -44.2215 -44.2215 -44.1896 -44.1896 -44.0287 -44.0287
     6.5155   6.5155   7.5736   7.5736   8.2559   8.2559   8.3558   8.3558
     8.7361   8.7361   9.2772   9.2772

          k = 0.0000 0.4949 0.0000 (  1462 PWs)   bands (ev):

   -78.1041 -78.1015 -44.2482 -44.2408 -44.2010 -44.1895 -44.0384 -44.0158
     6.7389   6.9336   6.9942   7.7785   7.8500   8.3853   8.6432   8.6884
     9.0314   9.0764  10.0921  13.2814

          k = 0.0000 0.4949 0.1437 (  1458 PWs)   bands (ev):

   -78.1036 -78.1018 -44.2476 -44.2424 -44.1994 -44.1913 -44.0341 -44.0184
     6.5956   6.9059   7.2586   7.4712   7.9589   8.5466   8.6613   9.0414
     9.0752   9.0805  10.0171  12.3550

          k = 0.0000 0.4949-0.2874 (  1462 PWs)   bands (ev):

   -78.1028 -78.1028 -44.2456 -44.2456 -44.1953 -44.1953 -44.0258 -44.0258
     6.6741   6.6741   7.3955   7.3955   8.2379   8.2379   9.0613   9.0613
     9.1449   9.1449  10.6953  10.6953

          k = 0.1429 0.2474 0.0000 (  1454 PWs)   bands (ev):

   -78.1083 -78.1038 -44.2135 -44.2098 -44.1925 -44.1853 -44.0524 -44.0087
     5.2584   7.4331   7.4712   7.6422   7.8728   7.9646   8.1394   8.5026
     8.6240   8.6511   8.8310  12.6281

          k = 0.1429 0.2474 0.1437 (  1449 PWs)   bands (ev):

   -78.1077 -78.1043 -44.2128 -44.2105 -44.1914 -44.1865 -44.0455 -44.0151
     5.5771   7.1468   7.5543   7.6563   7.9222   7.9940   8.1125   8.4190
     8.6830   8.6856   8.8387  10.5069

          k = 0.1429 0.2474-0.2874 (  1438 PWs)   bands (ev):

   -78.1058 -78.1058 -44.2112 -44.2112 -44.1893 -44.1893 -44.0294 -44.0294
     6.3844   6.3844   7.6631   7.6631   7.9550   7.9550   8.2322   8.2322
     8.7759   8.7759   9.1502   9.1502

          k = 0.1429 0.4124 0.0000 (  1460 PWs)   bands (ev):

   -78.1048 -78.1017 -44.2367 -44.2316 -44.2037 -44.1948 -44.0413 -44.0139
     6.6806   7.0714   7.2793   7.7176   7.7866   7.9415   8.2699   8.6245
     8.8305   9.1294   9.6971  14.5072

          k = 0.1429 0.4124 0.1437 (  1463 PWs)   bands (ev):

   -78.1044 -78.1022 -44.2363 -44.2326 -44.2029 -44.1965 -44.0366 -44.0176
     6.6908   7.0577   7.3671   7.5956   7.9138   8.1364   8.2979   8.4788
     8.9252   9.1977   9.7164  12.0913

          k = 0.1429 0.4124-0.2874 (  1454 PWs)   bands (ev):

   -78.1032 -78.1032 -44.2346 -44.2346 -44.1998 -44.1998 -44.0262 -44.0262
     6.8375   6.8375   7.5528   7.5528   8.0826   8.0826   8.3666   8.3666
     9.2125   9.2125  10.2888  10.2888

          k = 0.1429 0.5774 0.0000 (  1464 PWs)   bands (ev):

   -78.1029 -78.1013 -44.2478 -44.2406 -44.2099 -44.1988 -44.0336 -44.0185
     6.9532   7.0694   7.1175   7.7450   7.7574   8.2247   8.4833   8.6132
     9.0759   9.2514  11.5339  12.3740

          k = 0.1429 0.5774 0.1437 (  1456 PWs)   bands (ev):

   -78.1026 -78.1014 -44.2470 -44.2419 -44.2082 -44.2003 -44.0304 -44.0199
     6.7864   7.0919   7.3937   7.4618   7.7807   8.3855   8.5778   8.5828
     9.1093   9.3254  11.6991  12.3812

          k = 0.1429 0.5774-0.2874 (  1460 PWs)   bands (ev):

   -78.1020 -78.1020 -44.2448 -44.2448 -44.2043 -44.2043 -44.0250 -44.0250
     6.8563   6.8563   7.4833   7.4833   8.0344   8.0344   8.6981   8.6981
     9.2771   9.2771  12.1808  12.1808

          k = 0.2857 0.4949 0.0000 (  1454 PWs)   bands (ev):

   -78.1022 -78.1011 -44.2381 -44.2335 -44.2198 -44.2126 -44.0308 -44.0203
     7.0431   7.4024   7.5759   7.5932   7.6327   7.7630   8.2908   8.5331
     9.0454   9.2732  11.6049  14.7091

          k = 0.2857 0.4949 0.1437 (  1471 PWs)   bands (ev):

   -78.1022 -78.1015 -44.2374 -44.2344 -44.2200 -44.2146 -44.0289 -44.0213
     7.0879   7.2870   7.4935   7.5870   7.7580   7.9016   8.2799   8.3976
     9.1316   9.3140  11.8537  14.2150

          k = 0.2857 0.4949-0.2874 (  1468 PWs)   bands (ev):

   -78.1018 -78.1018 -44.2356 -44.2356 -44.2179 -44.2179 -44.0243 -44.0243
     7.1591   7.1591   7.5696   7.5696   7.8646   7.8646   8.2795   8.2795
     9.2960   9.2960  12.7222  12.7222

 ------ SPIN DOWN ----------


          k = 0.0000 0.0000 0.0000 (  1461 PWs)   bands (ev):

   -74.6306 -74.6233 -40.7444 -40.7444 -40.7362 -40.7362 -40.7292 -40.6616
     4.0903   7.8390  10.0252  10.1260  10.7778  10.7778  10.9382  10.9382
    11.9812  11.9812  12.5533  12.5533

          k = 0.0000 0.0000 0.1437 (  1461 PWs)   bands (ev):

   -74.6293 -74.6246 -40.7434 -40.7434 -40.7374 -40.7374 -40.7199 -40.6712
     4.4844   7.0826   9.7632   9.9388  10.7757  10.7757  10.8922  10.8922
    12.0927  12.0927  12.4947  12.4947

          k = 0.0000 0.0000-0.2874 (  1438 PWs)   bands (ev):

   -74.6267 -74.6267 -40.7403 -40.7403 -40.7403 -40.7403 -40.6950 -40.6950
     5.5964   5.5964   9.7625   9.7625  10.8111  10.8111  10.8111  10.8111
    12.3190  12.3190  12.3190  12.3190

          k = 0.0000 0.1650 0.0000 (  1451 PWs)   bands (ev):

   -74.6284 -74.6220 -40.7599 -40.7517 -40.7490 -40.7396 -40.7243 -40.6621
     4.6145   8.2329   9.9384  10.0882  10.6303  10.8029  11.0043  11.1471
    11.7773  11.8494  12.5887  13.2546

          k = 0.0000 0.1650 0.1437 (  1446 PWs)   bands (ev):

   -74.6274 -74.6229 -40.7594 -40.7533 -40.7475 -40.7407 -40.7149 -40.6709
     5.0003   7.5314   9.7043  10.0239  10.5856  10.7634  10.9950  11.0994
    11.9326  11.9886  12.5024  12.6758

          k = 0.0000 0.1650-0.2874 (  1446 PWs)   bands (ev):

   -74.6252 -74.6252 -40.7568 -40.7568 -40.7442 -40.7442 -40.6926 -40.6926
     6.0870   6.0870   9.8090   9.8090  10.6302  10.6302  11.0217  11.0217
    12.2689  12.2689  12.2780  12.2780

          k = 0.0000 0.3299 0.0000 (  1455 PWs)   bands (ev):

   -74.6240 -74.6191 -40.7947 -40.7867 -40.7589 -40.7469 -40.7121 -40.6660
     6.0794   8.9945   9.7328   9.9943  10.3360  11.0115  11.3720  11.5670
    11.6030  11.6523  12.6216  14.6579

          k = 0.0000 0.3299 0.1437 (  1455 PWs)   bands (ev):

   -74.6234 -74.6198 -40.7945 -40.7886 -40.7571 -40.7486 -40.7046 -40.6721
     6.4258   8.5620   9.6037  10.1035  10.2327  10.7437  11.4992  11.5992
    11.6779  11.8318  12.4845  13.0598

          k = 0.0000 0.3299-0.2874 (  1450 PWs)   bands (ev):

   -74.6215 -74.6215 -40.7920 -40.7920 -40.7531 -40.7531 -40.6873 -40.6873
     7.3858   7.3858   9.8583   9.8583  10.3985  10.3985  11.5279  11.5279
    12.1650  12.1650  12.2177  12.2177

          k = 0.0000 0.4949 0.0000 (  1462 PWs)   bands (ev):

   -74.6202 -74.6172 -40.8225 -40.8137 -40.7665 -40.7531 -40.6994 -40.6727
     7.9522   9.0710   9.6980   9.7683  10.3843  11.0263  11.4305  11.9323
    12.0706  12.1226  12.6262  14.3069

          k = 0.0000 0.4949 0.1437 (  1458 PWs)   bands (ev):

   -74.6197 -74.6176 -40.8223 -40.8161 -40.7646 -40.7551 -40.6941 -40.6755
     8.1420   8.9896   9.5716   9.9194  10.3921  11.1848  11.5702  11.8446
    12.0811  12.1041  12.4372  13.4449

          k = 0.0000 0.4949-0.2874 (  1462 PWs)   bands (ev):

   -74.6187 -74.6187 -40.8203 -40.8203 -40.7598 -40.7598 -40.6838 -40.6838
     8.5881   8.5881   9.7546   9.7546  10.8309  10.8309  11.9126  11.9126
    12.1561  12.1561  12.3172  12.3172

          k = 0.1429 0.2474 0.0000 (  1454 PWs)   bands (ev):

   -74.6252 -74.6200 -40.7813 -40.7773 -40.7564 -40.7482 -40.7162 -40.6646
     5.6149   8.8550   9.7821   9.9961  10.5689  10.6341  11.4194  11.4286
    11.5653  11.7300  12.5679  14.3979

          k = 0.1429 0.2474 0.1437 (  1449 PWs)   bands (ev):

   -74.6245 -74.6206 -40.7811 -40.7783 -40.7553 -40.7497 -40.7075 -40.6716
     5.9781   8.3081   9.6384  10.0624  10.3841  10.5664  11.3609  11.4885
    11.7442  11.8765  12.4502  12.9843

          k = 0.1429 0.2474-0.2874 (  1438 PWs)   bands (ev):

   -74.6224 -74.6224 -40.7798 -40.7798 -40.7529 -40.7529 -40.6883 -40.6883
     7.0001   7.0001   9.8872   9.8872  10.3512  10.3512  11.4102  11.4102
    12.1656  12.1656  12.2626  12.2626

          k = 0.1429 0.4124 0.0000 (  1460 PWs)   bands (ev):

   -74.6211 -74.6176 -40.8088 -40.8028 -40.7698 -40.7593 -40.7029 -40.6707
     7.3609   9.3120   9.7532   9.7646  10.4375  11.1031  11.1163  11.4252
    11.8703  12.2414  12.5308  15.3639

          k = 0.1429 0.4124 0.1437 (  1463 PWs)   bands (ev):

   -74.6206 -74.6181 -40.8088 -40.8044 -40.7688 -40.7613 -40.6968 -40.6744
     7.6466   9.1894   9.5751   9.9349  10.2928  10.7070  11.4074  11.5925
    12.0196  12.1012  12.4758  13.7265

          k = 0.1429 0.4124-0.2874 (  1454 PWs)   bands (ev):

   -74.6193 -74.6193 -40.8073 -40.8073 -40.7653 -40.7653 -40.6842 -40.6842
     8.3947   8.3947   9.8713   9.8713  10.2911  10.2911  11.6915  11.6915
    12.1096  12.1096  12.5994  12.5994

          k = 0.1429 0.5774 0.0000 (  1464 PWs)   bands (ev):

   -74.6189 -74.6170 -40.8219 -40.8133 -40.7768 -40.7640 -40.6941 -40.6761
     8.6819   9.1604   9.5878   9.8180  10.5329  10.9674  11.2453  11.8111
    11.8188  12.5140  13.0936  13.9056

          k = 0.1429 0.5774 0.1437 (  1456 PWs)   bands (ev):

   -74.6185 -74.6171 -40.8214 -40.8153 -40.7751 -40.7660 -40.6897 -40.6773
     8.7906   9.1678   9.6052   9.9505  10.3781  10.9054  11.4339  11.8394
    11.9048  12.2079  13.1664  13.7916

          k = 0.1429 0.5774-0.2874 (  1460 PWs)   bands (ev):

   -74.6179 -74.6179 -40.8193 -40.8193 -40.7707 -40.7707 -40.6825 -40.6825
     9.0159   9.0159   9.8415   9.8415  10.5763  10.5763  11.7480  11.7480
    11.9540  11.9540  13.4297  13.4297

          k = 0.2857 0.4949 0.0000 (  1454 PWs)   bands (ev):

   -74.6181 -74.6167 -40.8103 -40.8049 -40.7888 -40.7803 -40.6907 -40.6783
     8.8455   9.4427   9.5098   9.9823  10.8047  10.9429  11.0611  11.2385
    11.7186  12.4021  13.4087  15.6823

          k = 0.2857 0.4949 0.1437 (  1471 PWs)   bands (ev):

   -74.6181 -74.6172 -40.8098 -40.8064 -40.7892 -40.7827 -40.6876 -40.6788
     9.0329   9.5514   9.6099   9.9100  10.5121  10.5698  11.1046  11.5924
    11.9037  12.0662  13.6215  15.2745

          k = 0.2857 0.4949-0.2874 (  1468 PWs)   bands (ev):

   -74.6176 -74.6176 -40.8083 -40.8083 -40.7868 -40.7868 -40.6817 -40.6817
     9.4434   9.4434   9.9109   9.9109  10.1263  10.1263  11.5067  11.5067
    11.9219  11.9219  14.2204  14.2204

     the Fermi energy is    10.5602 ev

!    total energy              =    -658.40291661 Ry
     Harris-Foulkes estimate   =    -658.40291658 Ry
     estimated scf accuracy    <          3.1E-09 Ry

     total all-electron energy =     -5090.995988 Ry

     The total energy is the sum of the following terms:

     one-electron contribution =    -301.05878021 Ry
     hartree contribution      =     162.34822249 Ry
     xc contribution           =     -69.40723205 Ry
     ewald contribution        =    -298.00767835 Ry
     one-center paw contrib.   =    -152.27799719 Ry
     smearing contrib. (-TS)   =       0.00054870 Ry

     total magnetization       =     6.02 Bohr mag/cell
     absolute magnetization    =     6.28 Bohr mag/cell

     convergence has been achieved in  17 iterations

     Forces acting on atoms (Ry/au):


     negative rho (up, down):  0.000E+00 1.052E-03
     atom    1 type  1   force =     0.00000000    0.00000000    0.00000000
     atom    2 type  1   force =     0.00000000    0.00000000    0.00000000

     Total force =     0.000000     Total SCF correction =     0.000000


     entering subroutine stress ...


     negative rho (up, down):  0.000E+00 1.052E-03
          total   stress  (Ry/bohr**3)                   (kbar)     P= -286.18
  -0.00201248  -0.00000000   0.00000000       -296.05     -0.00      0.00
  -0.00000000  -0.00201248   0.00000000         -0.00   -296.05      0.00
   0.00000000   0.00000000  -0.00181136          0.00      0.00   -266.46


     Writing output data file Fe_hcp.save

     init_run     :      4.20s CPU      4.70s WALL (       1 calls)
     electrons    :    109.58s CPU    108.26s WALL (       1 calls)
     forces       :      0.70s CPU      0.65s WALL (       1 calls)
     stress       :      2.04s CPU      2.20s WALL (       1 calls)

     Called by init_run:
     wfcinit      :      2.35s CPU      2.60s WALL (       1 calls)
     potinit      :      1.16s CPU      1.30s WALL (       1 calls)

     Called by electrons:
     c_bands      :     77.31s CPU     74.12s WALL (      17 calls)
     sum_band     :     13.09s CPU     13.50s WALL (      17 calls)
     v_of_rho     :      1.09s CPU      1.19s WALL (      18 calls)
     newd         :      1.41s CPU      1.60s WALL (      18 calls)
     mix_rho      :      0.19s CPU      0.25s WALL (      17 calls)

     Called by c_bands:
     init_us_2    :      1.05s CPU      1.13s WALL (    1776 calls)
     cegterg      :     74.37s CPU     70.97s WALL (     816 calls)

     Called by *egterg:
     h_psi        :     58.55s CPU     59.54s WALL (    2974 calls)
     s_psi        :      2.80s CPU      1.70s WALL (    2974 calls)
     g_psi        :      0.38s CPU      0.41s WALL (    2110 calls)
     cdiaghg      :      3.16s CPU      3.36s WALL (    2926 calls)

     Called by h_psi:
     add_vuspsi   :      3.05s CPU      1.87s WALL (    2974 calls)

     General routines
     calbec       :      4.27s CPU      2.54s WALL (    3886 calls)
     fft          :      0.63s CPU      0.68s WALL (     592 calls)
     ffts         :      0.05s CPU      0.06s WALL (      70 calls)
     fftw         :     55.97s CPU     59.59s WALL (  105278 calls)
     interpolate  :      0.15s CPU      0.18s WALL (      70 calls)
     davcio       :      0.00s CPU      0.02s WALL (      48 calls)


     PAW routines
     PAW_pot      :     17.59s CPU     18.83s WALL (      18 calls)
     PAW_symme    :      0.02s CPU      0.02s WALL (      35 calls)

     PWSCF        :  1m57.07s CPU     1m56.58s WALL


   This run was terminated on:  19:25:23  11May2015            

=------------------------------------------------------------------------------=
   JOB DONE.
=------------------------------------------------------------------------------=
