
     Program PWSCF v.5.1.2 starts on 11May2015 at 21:21: 8 

     This program is part of the open-source Quantum ESPRESSO suite
     for quantum simulation of materials; please cite
         "P. Giannozzi et al., J. Phys.:Condens. Matter 21 395502 (2009);
          URL http://www.quantum-espresso.org", 
     in publications or presentations arising from this work. More details at
     http://www.quantum-espresso.org/quote

     Serial version
     Reading input from Fe_HCP_5.43_173_9_5.pw.in

     Current dimensions of program PWSCF are:
     Max number of different atomic species (ntypx) = 10
     Max number of k-points (npk) =  40000
     Max angular momentum in pseudopotentials (lmaxx) =  3
               file Fe.pbe-spn-kjpaw_psl.0.2.1.UPF: wavefunction(s)  3D renormalized

     G-vector sticks info
     --------------------
     sticks:   dense  smooth     PW     G-vecs:    dense   smooth      PW
     Sum         511     421    121                16061    11455    1979

     Generating pointlists ...
     new r_m :   0.4125 (alat units)  2.2399 (a.u.) for type    1


     bravais-lattice index     =            4
     lattice parameter (alat)  =       5.4300  a.u.
     unit-cell volume          =     239.8702 (a.u.)^3
     number of atoms/cell      =            2
     number of atomic types    =            1
     number of electrons       =        32.00
     number of Kohn-Sham states=           20
     kinetic-energy cutoff     =      50.0000  Ry
     charge density cutoff     =     250.0000  Ry
     convergence threshold     =      1.0E-08
     mixing beta               =       0.7000
     number of iterations used =            8  plain     mixing
     Exchange-correlation      =  SLA  PW   PBX  PBC ( 1  4  3  4 0 0)

     celldm(1)=   5.430000  celldm(2)=   0.000000  celldm(3)=   1.730000
     celldm(4)=   0.000000  celldm(5)=   0.000000  celldm(6)=   0.000000

     crystal axes: (cart. coord. in units of alat)
               a(1) = (   1.000000   0.000000   0.000000 )  
               a(2) = (  -0.500000   0.866025   0.000000 )  
               a(3) = (   0.000000   0.000000   1.730000 )  

     reciprocal axes: (cart. coord. in units 2 pi/alat)
               b(1) = (  1.000000  0.577350 -0.000000 )  
               b(2) = (  0.000000  1.154701  0.000000 )  
               b(3) = (  0.000000 -0.000000  0.578035 )  


     PseudoPot. # 1 for Fe read from file:
     ./Fe.pbe-spn-kjpaw_psl.0.2.1.UPF
     MD5 check sum: a0a08122d52b112de96d1da1d7dd020f
     Pseudo is Projector augmented-wave + core cor, Zval = 16.0
     Generated using "atomic" code by A. Dal Corso  v.5.0.2 svn rev. 9415
     Shape of augmentation charge: PSQ
     Using radial grid of 1191 points,  6 beta functions with: 
                l(1) =   0
                l(2) =   0
                l(3) =   1
                l(4) =   1
                l(5) =   2
                l(6) =   2
     Q(r) pseudized with 0 coefficients 


     atomic species   valence    mass     pseudopotential
        Fe            16.00    55.85000     Fe( 1.00)

     Starting magnetic structure 
     atomic species   magnetization
        Fe           0.700

     24 Sym. Ops., with inversion, found (12 have fractional translation)



   Cartesian axes

     site n.     atom                  positions (alat units)
         1           Fe  tau(   1) = (  -0.0000000   0.5773503   0.4325000  )
         2           Fe  tau(   2) = (   0.5000000   0.2886751   1.2975000  )

     number of k points=    72  Marzari-Vanderbilt smearing, width (Ry)=  0.0250
                       cart. coord. in units 2pi/alat
        k(    1) = (   0.0000000   0.0000000   0.0000000), wk =   0.0024691
        k(    2) = (   0.0000000   0.0000000   0.1156069), wk =   0.0049383
        k(    3) = (   0.0000000   0.0000000   0.2312139), wk =   0.0049383
        k(    4) = (   0.0000000   0.1283001   0.0000000), wk =   0.0148148
        k(    5) = (   0.0000000   0.1283001   0.1156069), wk =   0.0296296
        k(    6) = (   0.0000000   0.1283001   0.2312139), wk =   0.0296296
        k(    7) = (   0.0000000   0.2566001   0.0000000), wk =   0.0148148
        k(    8) = (   0.0000000   0.2566001   0.1156069), wk =   0.0296296
        k(    9) = (   0.0000000   0.2566001   0.2312139), wk =   0.0296296
        k(   10) = (   0.0000000   0.3849002   0.0000000), wk =   0.0148148
        k(   11) = (   0.0000000   0.3849002   0.1156069), wk =   0.0296296
        k(   12) = (   0.0000000   0.3849002   0.2312139), wk =   0.0296296
        k(   13) = (   0.0000000   0.5132002   0.0000000), wk =   0.0148148
        k(   14) = (   0.0000000   0.5132002   0.1156069), wk =   0.0296296
        k(   15) = (   0.0000000   0.5132002   0.2312139), wk =   0.0296296
        k(   16) = (   0.1111111   0.1924501   0.0000000), wk =   0.0148148
        k(   17) = (   0.1111111   0.1924501   0.1156069), wk =   0.0296296
        k(   18) = (   0.1111111   0.1924501   0.2312139), wk =   0.0296296
        k(   19) = (   0.1111111   0.3207501   0.0000000), wk =   0.0296296
        k(   20) = (   0.1111111   0.3207501   0.1156069), wk =   0.0592593
        k(   21) = (   0.1111111   0.3207501   0.2312139), wk =   0.0592593
        k(   22) = (   0.1111111   0.4490502   0.0000000), wk =   0.0296296
        k(   23) = (   0.1111111   0.4490502   0.1156069), wk =   0.0592593
        k(   24) = (   0.1111111   0.4490502   0.2312139), wk =   0.0592593
        k(   25) = (   0.1111111   0.5773503   0.0000000), wk =   0.0148148
        k(   26) = (   0.1111111   0.5773503   0.1156069), wk =   0.0296296
        k(   27) = (   0.1111111   0.5773503   0.2312139), wk =   0.0296296
        k(   28) = (   0.2222222   0.3849002   0.0000000), wk =   0.0148148
        k(   29) = (   0.2222222   0.3849002   0.1156069), wk =   0.0296296
        k(   30) = (   0.2222222   0.3849002   0.2312139), wk =   0.0296296
        k(   31) = (   0.2222222   0.5132002   0.0000000), wk =   0.0296296
        k(   32) = (   0.2222222   0.5132002   0.1156069), wk =   0.0592593
        k(   33) = (   0.2222222   0.5132002   0.2312139), wk =   0.0592593
        k(   34) = (   0.3333333   0.5773503   0.0000000), wk =   0.0049383
        k(   35) = (   0.3333333   0.5773503   0.1156069), wk =   0.0098765
        k(   36) = (   0.3333333   0.5773503   0.2312139), wk =   0.0098765
        k(   37) = (   0.0000000   0.0000000   0.0000000), wk =   0.0024691
        k(   38) = (   0.0000000   0.0000000   0.1156069), wk =   0.0049383
        k(   39) = (   0.0000000   0.0000000   0.2312139), wk =   0.0049383
        k(   40) = (   0.0000000   0.1283001   0.0000000), wk =   0.0148148
        k(   41) = (   0.0000000   0.1283001   0.1156069), wk =   0.0296296
        k(   42) = (   0.0000000   0.1283001   0.2312139), wk =   0.0296296
        k(   43) = (   0.0000000   0.2566001   0.0000000), wk =   0.0148148
        k(   44) = (   0.0000000   0.2566001   0.1156069), wk =   0.0296296
        k(   45) = (   0.0000000   0.2566001   0.2312139), wk =   0.0296296
        k(   46) = (   0.0000000   0.3849002   0.0000000), wk =   0.0148148
        k(   47) = (   0.0000000   0.3849002   0.1156069), wk =   0.0296296
        k(   48) = (   0.0000000   0.3849002   0.2312139), wk =   0.0296296
        k(   49) = (   0.0000000   0.5132002   0.0000000), wk =   0.0148148
        k(   50) = (   0.0000000   0.5132002   0.1156069), wk =   0.0296296
        k(   51) = (   0.0000000   0.5132002   0.2312139), wk =   0.0296296
        k(   52) = (   0.1111111   0.1924501   0.0000000), wk =   0.0148148
        k(   53) = (   0.1111111   0.1924501   0.1156069), wk =   0.0296296
        k(   54) = (   0.1111111   0.1924501   0.2312139), wk =   0.0296296
        k(   55) = (   0.1111111   0.3207501   0.0000000), wk =   0.0296296
        k(   56) = (   0.1111111   0.3207501   0.1156069), wk =   0.0592593
        k(   57) = (   0.1111111   0.3207501   0.2312139), wk =   0.0592593
        k(   58) = (   0.1111111   0.4490502   0.0000000), wk =   0.0296296
        k(   59) = (   0.1111111   0.4490502   0.1156069), wk =   0.0592593
        k(   60) = (   0.1111111   0.4490502   0.2312139), wk =   0.0592593
        k(   61) = (   0.1111111   0.5773503   0.0000000), wk =   0.0148148
        k(   62) = (   0.1111111   0.5773503   0.1156069), wk =   0.0296296
        k(   63) = (   0.1111111   0.5773503   0.2312139), wk =   0.0296296
        k(   64) = (   0.2222222   0.3849002   0.0000000), wk =   0.0148148
        k(   65) = (   0.2222222   0.3849002   0.1156069), wk =   0.0296296
        k(   66) = (   0.2222222   0.3849002   0.2312139), wk =   0.0296296
        k(   67) = (   0.2222222   0.5132002   0.0000000), wk =   0.0296296
        k(   68) = (   0.2222222   0.5132002   0.1156069), wk =   0.0592593
        k(   69) = (   0.2222222   0.5132002   0.2312139), wk =   0.0592593
        k(   70) = (   0.3333333   0.5773503   0.0000000), wk =   0.0049383
        k(   71) = (   0.3333333   0.5773503   0.1156069), wk =   0.0098765
        k(   72) = (   0.3333333   0.5773503   0.2312139), wk =   0.0098765

     Dense  grid:    16061 G-vectors     FFT dimensions: (  27,  27,  48)

     Smooth grid:    11455 G-vectors     FFT dimensions: (  25,  25,  45)

     Largest allocated arrays     est. size (Mb)     dimensions
        Kohn-Sham Wavefunctions         0.44 Mb     (    1449,   20)
        NL pseudopotentials             0.80 Mb     (    1449,   36)
        Each V/rho on FFT grid          1.07 Mb     (   34992,   2)
        Each G-vector array             0.12 Mb     (   16061)
        G-vector shells                 0.01 Mb     (     838)
     Largest temporary arrays     est. size (Mb)     dimensions
        Auxiliary wavefunctions         1.77 Mb     (    1449,   80)
        Each subspace H/S matrix        0.10 Mb     (      80,   80)
        Each <psi_i|beta_j> matrix      0.01 Mb     (      36,   20)
        Arrays for rho mixing           4.27 Mb     (   34992,    8)

     Check: negative/imaginary core charge=   -0.000320    0.000000

     Initial potential from superposition of free atoms

     starting charge   31.99912, renormalised to   32.00000
     Starting wfc are   26 randomized atomic wfcs

     total cpu time spent up to now is        5.0 secs

     Self-consistent Calculation

     iteration #  1     ecut=    50.00 Ry     beta=0.70
     Davidson diagonalization with overlap
     ethr =  1.00E-02,  avg # of iterations =  2.0

     negative rho (up, down):  0.000E+00 1.091E-03

     Magnetic moment per site:
     atom:    1    charge:   14.6110    magn:    5.9476    constr:    0.0000
     atom:    2    charge:   14.6110    magn:    5.9476    constr:    0.0000

     total cpu time spent up to now is       12.4 secs

     total energy              =    -657.96330734 Ry
     Harris-Foulkes estimate   =    -656.24949479 Ry
     estimated scf accuracy    <       2.83722958 Ry

     total magnetization       =     8.00 Bohr mag/cell
     absolute magnetization    =     8.28 Bohr mag/cell

     iteration #  2     ecut=    50.00 Ry     beta=0.70
     Davidson diagonalization with overlap
     ethr =  8.87E-03,  avg # of iterations =  1.6

     negative rho (up, down):  0.000E+00 1.072E-03

     Magnetic moment per site:
     atom:    1    charge:   14.8352    magn:    4.0363    constr:    0.0000
     atom:    2    charge:   14.8352    magn:    4.0363    constr:    0.0000

     total cpu time spent up to now is       19.4 secs

     total energy              =    -658.13682279 Ry
     Harris-Foulkes estimate   =    -658.17734587 Ry
     estimated scf accuracy    <       0.82904556 Ry

     total magnetization       =     6.62 Bohr mag/cell
     absolute magnetization    =     6.89 Bohr mag/cell

     iteration #  3     ecut=    50.00 Ry     beta=0.70
     Davidson diagonalization with overlap
     ethr =  2.59E-03,  avg # of iterations =  3.1

     negative rho (up, down):  0.000E+00 1.255E-03

     Magnetic moment per site:
     atom:    1    charge:   14.7209    magn:    3.0678    constr:    0.0000
     atom:    2    charge:   14.7209    magn:    3.0678    constr:    0.0000

     total cpu time spent up to now is       27.5 secs

     total energy              =    -658.17044914 Ry
     Harris-Foulkes estimate   =    -658.64380018 Ry
     estimated scf accuracy    <       1.32534961 Ry

     total magnetization       =     6.70 Bohr mag/cell
     absolute magnetization    =     6.97 Bohr mag/cell

     iteration #  4     ecut=    50.00 Ry     beta=0.70
     Davidson diagonalization with overlap
     ethr =  2.59E-03,  avg # of iterations =  2.7

     negative rho (up, down):  0.000E+00 1.071E-03

     Magnetic moment per site:
     atom:    1    charge:   14.7738    magn:    3.0753    constr:    0.0000
     atom:    2    charge:   14.7738    magn:    3.0753    constr:    0.0000

     total cpu time spent up to now is       35.3 secs

     total energy              =    -658.40140508 Ry
     Harris-Foulkes estimate   =    -658.40163394 Ry
     estimated scf accuracy    <       0.00629238 Ry

     total magnetization       =     6.00 Bohr mag/cell
     absolute magnetization    =     6.33 Bohr mag/cell

     iteration #  5     ecut=    50.00 Ry     beta=0.70
     Davidson diagonalization with overlap
     ethr =  1.97E-05,  avg # of iterations =  3.3

     negative rho (up, down):  0.000E+00 1.071E-03

     Magnetic moment per site:
     atom:    1    charge:   14.7680    magn:    3.0740    constr:    0.0000
     atom:    2    charge:   14.7680    magn:    3.0740    constr:    0.0000

     total cpu time spent up to now is       45.9 secs

     total energy              =    -658.40790712 Ry
     Harris-Foulkes estimate   =    -658.40707983 Ry
     estimated scf accuracy    <       0.00074098 Ry

     total magnetization       =     6.02 Bohr mag/cell
     absolute magnetization    =     6.33 Bohr mag/cell

     iteration #  6     ecut=    50.00 Ry     beta=0.70
     Davidson diagonalization with overlap
     ethr =  2.32E-06,  avg # of iterations =  2.2

     negative rho (up, down):  0.000E+00 1.000E-03

     Magnetic moment per site:
     atom:    1    charge:   14.7676    magn:    3.0601    constr:    0.0000
     atom:    2    charge:   14.7676    magn:    3.0601    constr:    0.0000

     total cpu time spent up to now is       53.0 secs

     total energy              =    -658.40519225 Ry
     Harris-Foulkes estimate   =    -658.40811646 Ry
     estimated scf accuracy    <       0.00049183 Ry

     total magnetization       =     6.02 Bohr mag/cell
     absolute magnetization    =     6.32 Bohr mag/cell

     iteration #  7     ecut=    50.00 Ry     beta=0.70
     Davidson diagonalization with overlap
     ethr =  1.54E-06,  avg # of iterations =  3.4

     negative rho (up, down):  0.000E+00 1.050E-03

     Magnetic moment per site:
     atom:    1    charge:   14.7679    magn:    3.0700    constr:    0.0000
     atom:    2    charge:   14.7679    magn:    3.0700    constr:    0.0000

     total cpu time spent up to now is       62.8 secs

     total energy              =    -658.40875874 Ry
     Harris-Foulkes estimate   =    -658.40646668 Ry
     estimated scf accuracy    <       0.00072685 Ry

     total magnetization       =     6.01 Bohr mag/cell
     absolute magnetization    =     6.28 Bohr mag/cell

     iteration #  8     ecut=    50.00 Ry     beta=0.70
     Davidson diagonalization with overlap
     ethr =  1.54E-06,  avg # of iterations =  2.4

     negative rho (up, down):  0.000E+00 1.049E-03

     Magnetic moment per site:
     atom:    1    charge:   14.7682    magn:    3.0692    constr:    0.0000
     atom:    2    charge:   14.7682    magn:    3.0692    constr:    0.0000

     total cpu time spent up to now is       71.3 secs

     total energy              =    -658.40900618 Ry
     Harris-Foulkes estimate   =    -658.40900535 Ry
     estimated scf accuracy    <       0.00024602 Ry

     total magnetization       =     6.01 Bohr mag/cell
     absolute magnetization    =     6.29 Bohr mag/cell

     iteration #  9     ecut=    50.00 Ry     beta=0.70
     Davidson diagonalization with overlap
     ethr =  7.69E-07,  avg # of iterations =  1.0

     negative rho (up, down):  0.000E+00 1.044E-03

     Magnetic moment per site:
     atom:    1    charge:   14.7687    magn:    3.0655    constr:    0.0000
     atom:    2    charge:   14.7687    magn:    3.0655    constr:    0.0000

     total cpu time spent up to now is       77.9 secs

     total energy              =    -658.40917148 Ry
     Harris-Foulkes estimate   =    -658.40901258 Ry
     estimated scf accuracy    <       0.00023799 Ry

     total magnetization       =     6.01 Bohr mag/cell
     absolute magnetization    =     6.29 Bohr mag/cell

     iteration # 10     ecut=    50.00 Ry     beta=0.70
     Davidson diagonalization with overlap
     ethr =  7.44E-07,  avg # of iterations =  1.4

     negative rho (up, down):  0.000E+00 1.032E-03

     Magnetic moment per site:
     atom:    1    charge:   14.7695    magn:    3.0576    constr:    0.0000
     atom:    2    charge:   14.7695    magn:    3.0576    constr:    0.0000

     total cpu time spent up to now is       84.7 secs

     total energy              =    -658.40913626 Ry
     Harris-Foulkes estimate   =    -658.40918888 Ry
     estimated scf accuracy    <       0.00009335 Ry

     total magnetization       =     6.01 Bohr mag/cell
     absolute magnetization    =     6.29 Bohr mag/cell

     iteration # 11     ecut=    50.00 Ry     beta=0.70
     Davidson diagonalization with overlap
     ethr =  2.92E-07,  avg # of iterations =  2.8

     negative rho (up, down):  0.000E+00 1.034E-03

     Magnetic moment per site:
     atom:    1    charge:   14.7692    magn:    3.0590    constr:    0.0000
     atom:    2    charge:   14.7692    magn:    3.0590    constr:    0.0000

     total cpu time spent up to now is       93.0 secs

     total energy              =    -658.40929593 Ry
     Harris-Foulkes estimate   =    -658.40921270 Ry
     estimated scf accuracy    <       0.00001612 Ry

     total magnetization       =     6.00 Bohr mag/cell
     absolute magnetization    =     6.27 Bohr mag/cell

     iteration # 12     ecut=    50.00 Ry     beta=0.70
     Davidson diagonalization with overlap
     ethr =  5.04E-08,  avg # of iterations =  2.2

     negative rho (up, down):  0.000E+00 1.033E-03

     Magnetic moment per site:
     atom:    1    charge:   14.7690    magn:    3.0582    constr:    0.0000
     atom:    2    charge:   14.7690    magn:    3.0582    constr:    0.0000

     total cpu time spent up to now is      100.6 secs

     total energy              =    -658.40930201 Ry
     Harris-Foulkes estimate   =    -658.40929810 Ry
     estimated scf accuracy    <       0.00000006 Ry

     total magnetization       =     6.00 Bohr mag/cell
     absolute magnetization    =     6.27 Bohr mag/cell

     iteration # 13     ecut=    50.00 Ry     beta=0.70
     Davidson diagonalization with overlap
     ethr =  1.94E-10,  avg # of iterations =  4.2

     negative rho (up, down):  0.000E+00 1.034E-03

     Magnetic moment per site:
     atom:    1    charge:   14.7691    magn:    3.0585    constr:    0.0000
     atom:    2    charge:   14.7691    magn:    3.0585    constr:    0.0000

     total cpu time spent up to now is      112.9 secs

     total energy              =    -658.40930411 Ry
     Harris-Foulkes estimate   =    -658.40930260 Ry
     estimated scf accuracy    <       0.00000003 Ry

     total magnetization       =     6.00 Bohr mag/cell
     absolute magnetization    =     6.27 Bohr mag/cell

     iteration # 14     ecut=    50.00 Ry     beta=0.70
     Davidson diagonalization with overlap
     ethr =  8.52E-11,  avg # of iterations =  3.0

     negative rho (up, down):  0.000E+00 1.033E-03

     Magnetic moment per site:
     atom:    1    charge:   14.7692    magn:    3.0582    constr:    0.0000
     atom:    2    charge:   14.7692    magn:    3.0582    constr:    0.0000

     total cpu time spent up to now is      121.7 secs

     total energy              =    -658.40930416 Ry
     Harris-Foulkes estimate   =    -658.40930414 Ry
     estimated scf accuracy    <       0.00000029 Ry

     total magnetization       =     6.00 Bohr mag/cell
     absolute magnetization    =     6.27 Bohr mag/cell

     iteration # 15     ecut=    50.00 Ry     beta=0.70
     Davidson diagonalization with overlap
     ethr =  8.52E-11,  avg # of iterations =  3.7

     negative rho (up, down):  0.000E+00 1.033E-03

     Magnetic moment per site:
     atom:    1    charge:   14.7692    magn:    3.0581    constr:    0.0000
     atom:    2    charge:   14.7692    magn:    3.0581    constr:    0.0000

     total cpu time spent up to now is      131.3 secs

     End of self-consistent calculation

 ------ SPIN UP ------------


          k = 0.0000 0.0000 0.0000 (  1401 PWs)   bands (ev):

   -77.8834 -77.8767 -43.9404 -43.9404 -43.9324 -43.9324 -43.8542 -43.7898
     3.9307   6.9468   8.2419   8.2419   8.3623   8.3623   8.4687   8.4687
     8.4777   8.9182   8.9182  10.2238

          k = 0.0000 0.0000 0.1156 (  1401 PWs)   bands (ev):

   -77.8827 -77.8772 -43.9396 -43.9396 -43.9332 -43.9332 -43.8480 -43.7972
     4.1877   6.7494   8.2040   8.2040   8.3216   8.3216   8.4427   8.5619
     8.5619   8.9056   8.9056   9.2512

          k = 0.0000 0.0000 0.2312 (  1407 PWs)   bands (ev):

   -77.8811 -77.8789 -43.9376 -43.9376 -43.9354 -43.9354 -43.8331 -43.8139
     4.9202   5.9556   8.1903   8.1903   8.2414   8.2414   8.3835   8.4889
     8.7197   8.7197   8.8449   8.8449

          k = 0.0000 0.1283 0.0000 (  1415 PWs)   bands (ev):

   -77.8825 -77.8760 -43.9491 -43.9433 -43.9417 -43.9341 -43.8518 -43.7919
     4.2503   7.1482   8.1344   8.2990   8.3008   8.3585   8.4117   8.4696
     8.5219   8.5878   8.9338  11.0224

          k = 0.0000 0.1283 0.1156 (  1417 PWs)   bands (ev):

   -77.8819 -77.8767 -43.9487 -43.9423 -43.9423 -43.9353 -43.8461 -43.7979
     4.5016   6.9725   8.1167   8.1573   8.2891   8.3342   8.4183   8.4695
     8.5491   8.6656   8.9171   9.9620

          k = 0.0000 0.1283 0.2312 (  1429 PWs)   bands (ev):

   -77.8804 -77.8785 -43.9471 -43.9448 -43.9407 -43.9379 -43.8315 -43.8132
     5.2162   6.2190   8.0558   8.0985   8.2765   8.3018   8.3344   8.3650
     8.7149   8.8462   8.8478   9.1626

          k = 0.0000 0.2566 0.0000 (  1421 PWs)   bands (ev):

   -77.8796 -77.8744 -43.9709 -43.9631 -43.9501 -43.9390 -43.8446 -43.7939
     5.1561   7.4748   7.7400   8.0444   8.2316   8.2846   8.3082   8.6680
     8.7516   8.8656   8.9565  12.5251

          k = 0.0000 0.2566 0.1156 (  1429 PWs)   bands (ev):

   -77.8793 -77.8749 -43.9705 -43.9642 -43.9489 -43.9403 -43.8400 -43.7992
     5.3779   7.3498   7.7230   8.0143   8.2087   8.3148   8.3618   8.6631
     8.7291   8.8939   8.9484  10.9333

          k = 0.0000 0.2566 0.2312 (  1429 PWs)   bands (ev):

   -77.8780 -77.8763 -43.9689 -43.9664 -43.9465 -43.9432 -43.8267 -43.8112
     5.9933   6.7857   7.8172   7.9455   8.2546   8.3406   8.4043   8.5377
     8.8072   8.8977   9.0813   9.6623

          k = 0.0000 0.3849 0.0000 (  1428 PWs)   bands (ev):

   -77.8764 -77.8726 -43.9948 -43.9874 -43.9569 -43.9443 -43.8351 -43.7981
     6.3508   7.3325   7.3554   8.1315   8.1491   8.1571   8.5864   8.9666
     9.0460   9.0965   9.3875  14.3154

          k = 0.0000 0.3849 0.1156 (  1438 PWs)   bands (ev):

   -77.8762 -77.8730 -43.9949 -43.9884 -43.9558 -43.9461 -43.8313 -43.8016
     6.4429   7.2329   7.4873   7.8533   8.2204   8.5193   8.6652   8.8517
     9.0596   9.1217   9.3271  12.1283

          k = 0.0000 0.3849 0.2312 (  1433 PWs)   bands (ev):

   -77.8753 -77.8738 -43.9935 -43.9910 -43.9527 -43.9491 -43.8213 -43.8104
     6.6818   6.9872   7.6558   7.7611   8.3938   8.6285   8.7882   8.9929
     9.0906   9.1200   9.3597  10.4204

          k = 0.0000 0.5132 0.0000 (  1436 PWs)   bands (ev):

   -77.8741 -77.8716 -44.0115 -44.0033 -43.9611 -43.9480 -43.8266 -43.8031
     6.9752   7.1351   7.1730   8.0198   8.0798   8.6499   8.8451   8.9679
     9.2998   9.3493  10.5501  13.1889

          k = 0.0000 0.5132 0.1156 (  1434 PWs)   bands (ev):

   -77.8739 -77.8717 -44.0110 -44.0041 -43.9597 -43.9492 -43.8239 -43.8053
     6.8254   7.1285   7.4125   7.7423   8.1546   8.8154   8.8688   9.2022
     9.3070   9.3477  10.5028  12.8435

          k = 0.0000 0.5132 0.2312 (  1434 PWs)   bands (ev):

   -77.8733 -77.8723 -44.0094 -44.0070 -43.9567 -43.9530 -43.8169 -43.8100
     6.8099   6.9729   7.5772   7.6145   8.3583   8.6291   9.1600   9.3224
     9.3383   9.5179  10.7372  11.7381

          k = 0.1111 0.1925 0.0000 (  1422 PWs)   bands (ev):

   -77.8807 -77.8748 -43.9630 -43.9577 -43.9467 -43.9395 -43.8468 -43.7937
     4.8665   7.4640   7.9069   7.9701   8.2199   8.2239   8.4455   8.6119
     8.6144   8.8178   8.9356  12.0885

          k = 0.1111 0.1925 0.1156 (  1432 PWs)   bands (ev):

   -77.8803 -77.8755 -43.9627 -43.9584 -43.9463 -43.9405 -43.8419 -43.7990
     5.1013   7.3212   7.8302   7.9750   8.2246   8.2626   8.3936   8.5783
     8.6861   8.8355   8.9326  10.6659

          k = 0.1111 0.1925 0.2312 (  1422 PWs)   bands (ev):

   -77.8786 -77.8768 -43.9612 -43.9593 -43.9447 -43.9426 -43.8281 -43.8117
     5.7633   6.6556   7.8787   7.9704   8.2040   8.2513   8.3972   8.4900
     8.7964   8.8889   9.0143   9.5244

          k = 0.1111 0.3208 0.0000 (  1433 PWs)   bands (ev):

   -77.8778 -77.8730 -43.9841 -43.9785 -43.9555 -43.9466 -43.8384 -43.7970
     5.9668   7.4876   7.5768   7.9335   8.0619   8.2814   8.3098   8.8533
     8.9297   9.0383   9.2781  13.7010

          k = 0.1111 0.3208 0.1156 (  1427 PWs)   bands (ev):

   -77.8772 -77.8735 -43.9836 -43.9788 -43.9547 -43.9473 -43.8342 -43.8005
     6.1370   7.3814   7.6306   7.9042   8.1633   8.2906   8.3070   8.7710
     8.9601   9.0823   9.2717  11.7093

          k = 0.1111 0.3208 0.2312 (  1422 PWs)   bands (ev):

   -77.8759 -77.8745 -43.9825 -43.9806 -43.9527 -43.9498 -43.8229 -43.8103
     6.5687   7.0501   7.7600   7.8787   8.2481   8.2913   8.4070   8.5869
     9.1452   9.2274   9.2744  10.1447

          k = 0.1111 0.4491 0.0000 (  1436 PWs)   bands (ev):

   -77.8747 -77.8718 -44.0030 -43.9959 -43.9635 -43.9517 -43.8291 -43.8020
     6.9548   7.2309   7.3630   7.9807   8.1376   8.2076   8.6094   8.9226
     9.1556   9.3667  10.1152  14.6051

          k = 0.1111 0.4491 0.1156 (  1431 PWs)   bands (ev):

   -77.8744 -77.8720 -44.0028 -43.9970 -43.9624 -43.9530 -43.8257 -43.8038
     6.8884   7.2632   7.4801   7.7817   8.1261   8.5525   8.6483   8.8232
     9.1819   9.4211  10.1163  13.0950

          k = 0.1111 0.4491 0.2312 (  1431 PWs)   bands (ev):

   -77.8736 -77.8727 -44.0015 -43.9994 -43.9598 -43.9561 -43.8179 -43.8100
     6.9180   7.0920   7.6498   7.7433   8.2528   8.5204   8.7774   8.8316
     9.3394   9.4929  10.3706  11.4214

          k = 0.1111 0.5774 0.0000 (  1446 PWs)   bands (ev):

   -77.8736 -77.8714 -44.0110 -44.0029 -43.9666 -43.9545 -43.8239 -43.8056
     7.1476   7.1850   7.2473   7.9985   8.0209   8.5574   8.7234   8.9190
     9.3295   9.4514  11.5586  12.5165

          k = 0.1111 0.5774 0.1156 (  1429 PWs)   bands (ev):

   -77.8732 -77.8714 -44.0105 -44.0036 -43.9652 -43.9553 -43.8211 -43.8065
     6.9480   7.2420   7.4924   7.7327   8.0527   8.7621   8.8019   8.8822
     9.3353   9.5126  11.6234  12.4974

          k = 0.1111 0.5774 0.2312 (  1429 PWs)   bands (ev):

   -77.8726 -77.8719 -44.0090 -44.0065 -43.9624 -43.9586 -43.8154 -43.8101
     6.9275   7.0895   7.6280   7.6712   8.2089   8.5160   9.0045   9.0501
     9.3990   9.5541  11.9212  12.3374

          k = 0.2222 0.3849 0.0000 (  1434 PWs)   bands (ev):

   -77.8749 -77.8719 -43.9934 -43.9927 -43.9662 -43.9584 -43.8299 -43.8012
     7.0243   7.3127   7.6622   7.7661   7.9100   8.1950   8.3985   8.8723
     9.0256   9.4138  10.0746  15.1044

          k = 0.2222 0.3849 0.1156 (  1440 PWs)   bands (ev):

   -77.8747 -77.8722 -43.9936 -43.9933 -43.9660 -43.9593 -43.8266 -43.8038
     7.0386   7.2808   7.6738   7.8381   8.0722   8.1440   8.3915   8.7579
     9.1064   9.4530  10.1145  13.0529

          k = 0.2222 0.3849 0.2312 (  1429 PWs)   bands (ev):

   -77.8738 -77.8728 -43.9939 -43.9937 -43.9641 -43.9614 -43.8183 -43.8099
     7.1000   7.1985   7.7717   7.8934   8.1425   8.2294   8.4074   8.5368
     9.3636   9.4972  10.3831  11.3675

          k = 0.2222 0.5132 0.0000 (  1442 PWs)   bands (ev):

   -77.8729 -77.8715 -44.0026 -43.9958 -43.9769 -43.9668 -43.8215 -43.8070
     7.2371   7.4996   7.5523   7.8954   8.0231   8.0337   8.5664   8.8350
     9.2461   9.4973  11.5987  14.1157

          k = 0.2222 0.5132 0.1156 (  1441 PWs)   bands (ev):

   -77.8728 -77.8715 -44.0022 -43.9966 -43.9764 -43.9683 -43.8190 -43.8076
     7.1975   7.5311   7.5948   7.7843   7.9560   8.2580   8.5826   8.7358
     9.2952   9.5312  11.7401  14.0549

          k = 0.2222 0.5132 0.2312 (  1440 PWs)   bands (ev):

   -77.8724 -77.8719 -44.0005 -43.9987 -43.9743 -43.9711 -43.8147 -43.8103
     7.2122   7.3479   7.7317   7.8717   7.9730   8.2433   8.6151   8.6273
     9.4387   9.5485  12.2338  13.1772

          k = 0.3333 0.5774 0.0000 (  1434 PWs)   bands (ev):

   -77.8717 -77.8717 -43.9964 -43.9882 -43.9882 -43.9798 -43.8136 -43.8136
     7.2697   7.7569   7.7569   7.8147   7.9085   7.9085   8.5243   8.7927
     9.3929   9.3929  13.7464  13.8996

          k = 0.3333 0.5774 0.1156 (  1449 PWs)   bands (ev):

   -77.8718 -77.8718 -43.9950 -43.9890 -43.9890 -43.9817 -43.8131 -43.8131
     7.3435   7.6571   7.6571   7.8047   8.0078   8.0078   8.5053   8.6909
     9.4322   9.4322  14.0324  14.0324

          k = 0.3333 0.5774 0.2312 (  1440 PWs)   bands (ev):

   -77.8717 -77.8717 -43.9909 -43.9896 -43.9896 -43.9853 -43.8116 -43.8116
     7.5327   7.5675   7.5675   7.7252   8.0968   8.0968   8.4769   8.5246
     9.4981   9.4981  14.3754  14.3754

 ------ SPIN DOWN ----------


          k = 0.0000 0.0000 0.0000 (  1401 PWs)   bands (ev):

   -74.4016 -74.3938 -40.5105 -40.5105 -40.5066 -40.5012 -40.5012 -40.4309
     4.2440   8.0542  10.2940  10.3724  11.0051  11.0051  11.1734  11.1734
    12.1790  12.1790  12.7773  12.7773

          k = 0.0000 0.0000 0.1156 (  1401 PWs)   bands (ev):

   -74.4010 -74.3946 -40.5095 -40.5095 -40.5021 -40.5021 -40.4995 -40.4392
     4.5026   7.5557  10.0763  10.2337  11.0009  11.0009  11.1401  11.1401
    12.2581  12.2581  12.7396  12.7396

          k = 0.0000 0.0000 0.2312 (  1407 PWs)   bands (ev):

   -74.3991 -74.3967 -40.5072 -40.5072 -40.5046 -40.5046 -40.4813 -40.4586
     5.2492   6.3783   9.9643  10.0877  11.0143  11.0143  11.0690  11.0690
    12.4394  12.4394  12.6221  12.6221

          k = 0.0000 0.1283 0.0000 (  1415 PWs)   bands (ev):

   -74.4006 -74.3931 -40.5206 -40.5136 -40.5120 -40.5037 -40.5032 -40.4328
     4.5646   8.3001  10.2269  10.3353  10.9122  11.0794  11.1469  11.3043
    12.0456  12.0925  12.8031  13.2402

          k = 0.0000 0.1283 0.1156 (  1417 PWs)   bands (ev):

   -74.3999 -74.3939 -40.5205 -40.5129 -40.5126 -40.5045 -40.4965 -40.4396
     4.8198   7.8230  10.0024  10.2852  10.8850  11.0585  11.1394  11.2697
    12.1446  12.1843  12.7531  12.9256

          k = 0.0000 0.1283 0.2312 (  1429 PWs)   bands (ev):

   -74.3981 -74.3959 -40.5188 -40.5159 -40.5105 -40.5073 -40.4788 -40.4573
     5.5571   6.6717   9.9653  10.1315  10.8871  10.9673  11.1475  11.1991
    12.3822  12.3926  12.6068  12.6466

          k = 0.0000 0.2566 0.0000 (  1421 PWs)   bands (ev):

   -74.3973 -74.3912 -40.5462 -40.5372 -40.5214 -40.5088 -40.4951 -40.4353
     5.4915   8.8969  10.0060  10.2985  10.7077  11.0665  11.5303  11.6514
    11.7595  11.9038  12.8398  14.3404

          k = 0.0000 0.2566 0.1156 (  1429 PWs)   bands (ev):

   -74.3968 -74.3918 -40.5463 -40.5388 -40.5201 -40.5102 -40.4889 -40.4410
     5.7333   8.5166   9.8698  10.3276  10.6446  10.9667  11.5057  11.6111
    11.9177  12.0326  12.7638  13.3237

          k = 0.0000 0.2566 0.2312 (  1429 PWs)   bands (ev):

   -74.3953 -74.3934 -40.5450 -40.5419 -40.5173 -40.5135 -40.4728 -40.4547
     6.4344   7.4799   9.9641  10.2262  10.6053  10.7783  11.4988  11.5443
    12.2677  12.2904  12.5603  12.7036

          k = 0.0000 0.3849 0.0000 (  1428 PWs)   bands (ev):

   -74.3934 -74.3890 -40.5747 -40.5659 -40.5294 -40.5150 -40.4836 -40.4401
     6.8853   9.3208   9.8905  10.1471  10.5519  11.4343  11.5211  11.7174
    12.0162  12.0820  12.8560  15.2292

          k = 0.0000 0.3849 0.1156 (  1438 PWs)   bands (ev):

   -74.3932 -74.3894 -40.5751 -40.5675 -40.5281 -40.5169 -40.4787 -40.4438
     7.0910   9.1593   9.7708  10.2773  10.4642  11.1652  11.7666  11.8070
    12.0388  12.0854  12.7517  13.8252

          k = 0.0000 0.3849 0.2312 (  1433 PWs)   bands (ev):

   -74.3920 -74.3905 -40.5741 -40.5711 -40.5246 -40.5204 -40.4663 -40.4535
     7.6715   8.4792   9.9091  10.1894  10.5446  10.8456  11.8748  11.9774
    12.2075  12.2420  12.5024  12.8063

          k = 0.0000 0.5132 0.0000 (  1436 PWs)   bands (ev):

   -74.3908 -74.3878 -40.5941 -40.5844 -40.5344 -40.5192 -40.4735 -40.4459
     8.2954   9.2416   9.8735   9.9455  10.6563  11.2073  11.6055  12.3513
    12.3537  12.4095  12.8583  14.3512

          k = 0.0000 0.5132 0.1156 (  1434 PWs)   bands (ev):

   -74.3905 -74.3880 -40.5941 -40.5860 -40.5328 -40.5207 -40.4699 -40.4479
     8.4019   9.2055   9.7832  10.0631  10.6424  11.3974  11.7020  12.2258
    12.3567  12.3983  12.7241  13.9001

          k = 0.0000 0.5132 0.2312 (  1434 PWs)   bands (ev):

   -74.3898 -74.3887 -40.5929 -40.5899 -40.5293 -40.5249 -40.4612 -40.4531
     8.6703   8.9895   9.8634  10.0517  10.8766  11.3870  11.9658  12.2830
    12.2985  12.3955  12.4684  13.0037

          k = 0.1111 0.1925 0.0000 (  1422 PWs)   bands (ev):

   -74.3984 -74.3917 -40.5368 -40.5310 -40.5176 -40.5093 -40.4978 -40.4348
     5.1893   8.7312  10.0634  10.3224  10.8486  10.9092  11.4233  11.5678
    11.7939  12.0164  12.8072  14.0127

          k = 0.1111 0.1925 0.1156 (  1432 PWs)   bands (ev):

   -74.3979 -74.3924 -40.5370 -40.5318 -40.5173 -40.5104 -40.4912 -40.4407
     5.4362   8.3131   9.9070  10.3283  10.7313  10.9139  11.4001  11.5225
    11.9687  12.0948  12.7403  13.2226

          k = 0.1111 0.1925 0.2312 (  1422 PWs)   bands (ev):

   -74.3961 -74.3940 -40.5359 -40.5335 -40.5154 -40.5129 -40.4744 -40.4553
     6.1527   7.2263   9.9706  10.2086  10.6659  10.7963  11.4013  11.4519
    12.3098  12.3099  12.5567  12.7024

          k = 0.1111 0.3208 0.0000 (  1433 PWs)   bands (ev):

   -74.3950 -74.3896 -40.5617 -40.5554 -40.5279 -40.5174 -40.4876 -40.4387
     6.3614   9.3045   9.9407  10.1290  10.6672  11.1023  11.4992  11.8138
    11.8588  12.0232  12.8005  15.1439

          k = 0.1111 0.3208 0.1156 (  1427 PWs)   bands (ev):

   -74.3943 -74.3901 -40.5617 -40.5563 -40.5271 -40.5185 -40.4820 -40.4425
     6.5884   9.0561   9.8105  10.2027  10.6037  10.9122  11.6809  11.7526
    11.9959  12.0569  12.7142  13.7080

          k = 0.1111 0.3208 0.2312 (  1422 PWs)   bands (ev):

   -74.3930 -74.3913 -40.5611 -40.5588 -40.5248 -40.5214 -40.4682 -40.4535
     7.2360   8.1764   9.9674  10.2982  10.3911  10.6506  11.7413  11.8627
    12.2327  12.2670  12.5081  12.8208

          k = 0.1111 0.4491 0.0000 (  1436 PWs)   bands (ev):

   -74.3914 -74.3881 -40.5842 -40.5759 -40.5373 -40.5237 -40.4764 -40.4444
     7.8318   9.4358   9.9263   9.9659  10.6699  11.2667  11.5861  11.6430
    12.1957  12.5537  12.7907  15.4557

          k = 0.1111 0.4491 0.1156 (  1431 PWs)   bands (ev):

   -74.3911 -74.3883 -40.5843 -40.5774 -40.5361 -40.5252 -40.4721 -40.4464
     7.9971   9.3993   9.7614  10.1546  10.5654  11.1391  11.6452  11.7923
    12.2697  12.4403  12.7500  14.3758

          k = 0.1111 0.4491 0.2312 (  1431 PWs)   bands (ev):

   -74.3903 -74.3892 -40.5835 -40.5809 -40.5332 -40.5288 -40.4623 -40.4529
     8.4414   9.0027   9.9017  10.1661  10.5523  10.8407  11.8303  12.1087
    12.1738  12.4005  12.7334  13.2301

          k = 0.1111 0.5774 0.0000 (  1446 PWs)   bands (ev):

   -74.3901 -74.3876 -40.5936 -40.5839 -40.5409 -40.5268 -40.4702 -40.4487
     8.7692   9.2849   9.8273   9.9457  10.7454  11.1701  11.4896  12.1586
    12.2008  12.7853  13.1569  14.0582

          k = 0.1111 0.5774 0.1156 (  1429 PWs)   bands (ev):

   -74.3897 -74.3877 -40.5934 -40.5854 -40.5395 -40.5279 -40.4667 -40.4495
     8.8357   9.2856   9.8063  10.0517  10.6615  11.2363  11.6182  12.1878
    12.1972  12.5640  13.1557  13.9487

          k = 0.1111 0.5774 0.2312 (  1429 PWs)   bands (ev):

   -74.3891 -74.3883 -40.5923 -40.5893 -40.5363 -40.5318 -40.4594 -40.4530
     8.9980   9.1847   9.9089  10.1116  10.7373  11.1328  11.9024  12.1530
    12.2016  12.2830  13.2260  13.6018

          k = 0.2222 0.3849 0.0000 (  1434 PWs)   bands (ev):

   -74.3917 -74.3881 -40.5732 -40.5720 -40.5405 -40.5313 -40.4774 -40.4437
     7.6542   9.6447   9.8603   9.9835  10.7900  11.2205  11.2622  11.5843
    12.1205  12.6216  12.7196  16.0026

          k = 0.2222 0.3849 0.1156 (  1440 PWs)   bands (ev):

   -74.3914 -74.3885 -40.5736 -40.5731 -40.5403 -40.5326 -40.4730 -40.4461
     7.8415   9.6850   9.7678   9.9317  10.7675  10.8326  11.4945  11.6826
    12.2689  12.4104  12.7884  14.5675

          k = 0.2222 0.3849 0.2312 (  1429 PWs)   bands (ev):

   -74.3904 -74.3893 -40.5743 -40.5742 -40.5385 -40.5354 -40.4626 -40.4527
     8.3620   9.0726   9.9993  10.1155  10.4527  10.5104  11.6716  12.0367
    12.1771  12.3971  12.8689  13.3851

          k = 0.2222 0.5132 0.0000 (  1442 PWs)   bands (ev):

   -74.3893 -74.3876 -40.5836 -40.5756 -40.5531 -40.5414 -40.4675 -40.4504
     8.8920   9.5918   9.7318  10.0972  10.9431  11.1538  11.3135  11.6244
    12.0510  12.6668  13.4816  15.2868

          k = 0.2222 0.5132 0.1156 (  1441 PWs)   bands (ev):

   -74.3892 -74.3877 -40.5834 -40.5769 -40.5527 -40.5432 -40.4642 -40.4508
     9.0091   9.6634   9.7412  10.1249  10.7439  10.9524  11.3860  11.7948
    12.1674  12.4336  13.6038  15.1582

          k = 0.2222 0.5132 0.2312 (  1440 PWs)   bands (ev):

   -74.3887 -74.3882 -40.5821 -40.5799 -40.5506 -40.5468 -40.4582 -40.4530
     9.2964   9.5778   9.9588  10.2223  10.4143  10.5892  11.6122  11.9858
    12.0947  12.2555  13.9104  14.5099

          k = 0.3333 0.5774 0.0000 (  1434 PWs)   bands (ev):

   -74.3878 -74.3878 -40.5760 -40.5667 -40.5667 -40.5568 -40.4582 -40.4582
     9.4857   9.4857   9.7200  10.2384  11.1214  11.1214  11.1790  11.7185
    11.7185  12.6087  15.0219  15.1502

          k = 0.3333 0.5774 0.1156 (  1449 PWs)   bands (ev):

   -74.3880 -74.3880 -40.5743 -40.5681 -40.5681 -40.5588 -40.4570 -40.4570
     9.5992   9.5992   9.7740  10.2012  10.8485  10.8485  11.2548  11.8980
    11.8980  12.3699  15.2529  15.2529

          k = 0.3333 0.5774 0.2312 (  1440 PWs)   bands (ev):

   -74.3879 -74.3879 -40.5698 -40.5698 -40.5695 -40.5632 -40.4546 -40.4546
     9.9051   9.9051   9.9153  10.0836  10.3944  10.3944  11.5031  11.9105
    12.0797  12.0797  15.4958  15.4958

     the Fermi energy is    10.7963 ev

!    total energy              =    -658.40930436 Ry
     Harris-Foulkes estimate   =    -658.40930427 Ry
     estimated scf accuracy    <          5.2E-09 Ry

     total all-electron energy =     -5091.002375 Ry

     The total energy is the sum of the following terms:

     one-electron contribution =    -298.18938331 Ry
     hartree contribution      =     161.18403719 Ry
     xc contribution           =     -69.41352396 Ry
     ewald contribution        =    -299.71235084 Ry
     one-center paw contrib.   =    -152.27876522 Ry
     smearing contrib. (-TS)   =       0.00068178 Ry

     total magnetization       =     6.00 Bohr mag/cell
     absolute magnetization    =     6.27 Bohr mag/cell

     convergence has been achieved in  15 iterations

     Forces acting on atoms (Ry/au):


     negative rho (up, down):  0.000E+00 1.033E-03
     atom    1 type  1   force =     0.00000000    0.00000000    0.00000000
     atom    2 type  1   force =     0.00000000   -0.00000000    0.00000000

     Total force =     0.000000     Total SCF correction =     0.000000


     entering subroutine stress ...


     negative rho (up, down):  0.000E+00 1.033E-03
          total   stress  (Ry/bohr**3)                   (kbar)     P= -288.30
  -0.00203478   0.00000000   0.00000000       -299.33      0.00      0.00
   0.00000000  -0.00203478   0.00000000          0.00   -299.33      0.00
  -0.00000000  -0.00000000  -0.00180984         -0.00     -0.00   -266.24


     Writing output data file Fe_hcp.save

     init_run     :      4.67s CPU      4.60s WALL (       1 calls)
     electrons    :    133.67s CPU    126.40s WALL (       1 calls)
     forces       :      0.81s CPU      0.67s WALL (       1 calls)
     stress       :      2.35s CPU      2.42s WALL (       1 calls)

     Called by init_run:
     wfcinit      :      2.99s CPU      2.85s WALL (       1 calls)
     potinit      :      1.06s CPU      1.11s WALL (       1 calls)

     Called by electrons:
     c_bands      :    101.17s CPU     93.32s WALL (      15 calls)
     sum_band     :     15.66s CPU     15.42s WALL (      15 calls)
     v_of_rho     :      0.95s CPU      0.98s WALL (      16 calls)
     newd         :      1.20s CPU      1.29s WALL (      16 calls)
     mix_rho      :      0.15s CPU      0.20s WALL (      15 calls)

     Called by c_bands:
     init_us_2    :      1.35s CPU      1.39s WALL (    2376 calls)
     cegterg      :     97.45s CPU     89.51s WALL (    1080 calls)

     Called by *egterg:
     h_psi        :     76.96s CPU     75.01s WALL (    3949 calls)
     s_psi        :      3.59s CPU      2.09s WALL (    3949 calls)
     g_psi        :      0.51s CPU      0.52s WALL (    2797 calls)
     cdiaghg      :      4.20s CPU      4.28s WALL (    3877 calls)

     Called by h_psi:
     add_vuspsi   :      4.14s CPU      2.43s WALL (    3949 calls)

     General routines
     calbec       :      5.43s CPU      3.08s WALL (    5173 calls)
     fft          :      0.55s CPU      0.57s WALL (     530 calls)
     ffts         :      0.05s CPU      0.05s WALL (      62 calls)
     fftw         :     73.18s CPU     74.66s WALL (  141006 calls)
     interpolate  :      0.13s CPU      0.14s WALL (      62 calls)
     davcio       :      0.00s CPU      0.04s WALL (      72 calls)


     PAW routines
     PAW_pot      :     15.57s CPU     16.24s WALL (      16 calls)
     PAW_symme    :      0.02s CPU      0.02s WALL (      31 calls)

     PWSCF        :  2m21.95s CPU     2m14.70s WALL


   This run was terminated on:  21:23:22  11May2015            

=------------------------------------------------------------------------------=
   JOB DONE.
=------------------------------------------------------------------------------=
