
     Program PWSCF v.5.1.2 starts on 11May2015 at 22:55:58 

     This program is part of the open-source Quantum ESPRESSO suite
     for quantum simulation of materials; please cite
         "P. Giannozzi et al., J. Phys.:Condens. Matter 21 395502 (2009);
          URL http://www.quantum-espresso.org", 
     in publications or presentations arising from this work. More details at
     http://www.quantum-espresso.org/quote

     Serial version
     Reading input from Fe_HCP_5.45_173_10_5.pw.in

     Current dimensions of program PWSCF are:
     Max number of different atomic species (ntypx) = 10
     Max number of k-points (npk) =  40000
     Max angular momentum in pseudopotentials (lmaxx) =  3
               file Fe.pbe-spn-kjpaw_psl.0.2.1.UPF: wavefunction(s)  3D renormalized

     G-vector sticks info
     --------------------
     sticks:   dense  smooth     PW     G-vecs:    dense   smooth      PW
     Sum         511     421    121                16205    11587    1979

     Generating pointlists ...
     new r_m :   0.4125 (alat units)  2.2481 (a.u.) for type    1


     bravais-lattice index     =            4
     lattice parameter (alat)  =       5.4500  a.u.
     unit-cell volume          =     242.5304 (a.u.)^3
     number of atoms/cell      =            2
     number of atomic types    =            1
     number of electrons       =        32.00
     number of Kohn-Sham states=           20
     kinetic-energy cutoff     =      50.0000  Ry
     charge density cutoff     =     250.0000  Ry
     convergence threshold     =      1.0E-08
     mixing beta               =       0.7000
     number of iterations used =            8  plain     mixing
     Exchange-correlation      =  SLA  PW   PBX  PBC ( 1  4  3  4 0 0)

     celldm(1)=   5.450000  celldm(2)=   0.000000  celldm(3)=   1.730000
     celldm(4)=   0.000000  celldm(5)=   0.000000  celldm(6)=   0.000000

     crystal axes: (cart. coord. in units of alat)
               a(1) = (   1.000000   0.000000   0.000000 )  
               a(2) = (  -0.500000   0.866025   0.000000 )  
               a(3) = (   0.000000   0.000000   1.730000 )  

     reciprocal axes: (cart. coord. in units 2 pi/alat)
               b(1) = (  1.000000  0.577350 -0.000000 )  
               b(2) = (  0.000000  1.154701  0.000000 )  
               b(3) = (  0.000000 -0.000000  0.578035 )  


     PseudoPot. # 1 for Fe read from file:
     ./Fe.pbe-spn-kjpaw_psl.0.2.1.UPF
     MD5 check sum: a0a08122d52b112de96d1da1d7dd020f
     Pseudo is Projector augmented-wave + core cor, Zval = 16.0
     Generated using "atomic" code by A. Dal Corso  v.5.0.2 svn rev. 9415
     Shape of augmentation charge: PSQ
     Using radial grid of 1191 points,  6 beta functions with: 
                l(1) =   0
                l(2) =   0
                l(3) =   1
                l(4) =   1
                l(5) =   2
                l(6) =   2
     Q(r) pseudized with 0 coefficients 


     atomic species   valence    mass     pseudopotential
        Fe            16.00    55.85000     Fe( 1.00)

     Starting magnetic structure 
     atomic species   magnetization
        Fe           0.700

     24 Sym. Ops., with inversion, found (12 have fractional translation)



   Cartesian axes

     site n.     atom                  positions (alat units)
         1           Fe  tau(   1) = (  -0.0000000   0.5773503   0.4325000  )
         2           Fe  tau(   2) = (   0.5000000   0.2886751   1.2975000  )

     number of k points=    84  Marzari-Vanderbilt smearing, width (Ry)=  0.0250
                       cart. coord. in units 2pi/alat
        k(    1) = (   0.0000000   0.0000000   0.0000000), wk =   0.0020000
        k(    2) = (   0.0000000   0.0000000   0.1156069), wk =   0.0040000
        k(    3) = (   0.0000000   0.0000000   0.2312139), wk =   0.0040000
        k(    4) = (   0.0000000   0.1154701   0.0000000), wk =   0.0120000
        k(    5) = (   0.0000000   0.1154701   0.1156069), wk =   0.0240000
        k(    6) = (   0.0000000   0.1154701   0.2312139), wk =   0.0240000
        k(    7) = (   0.0000000   0.2309401   0.0000000), wk =   0.0120000
        k(    8) = (   0.0000000   0.2309401   0.1156069), wk =   0.0240000
        k(    9) = (   0.0000000   0.2309401   0.2312139), wk =   0.0240000
        k(   10) = (   0.0000000   0.3464102   0.0000000), wk =   0.0120000
        k(   11) = (   0.0000000   0.3464102   0.1156069), wk =   0.0240000
        k(   12) = (   0.0000000   0.3464102   0.2312139), wk =   0.0240000
        k(   13) = (   0.0000000   0.4618802   0.0000000), wk =   0.0120000
        k(   14) = (   0.0000000   0.4618802   0.1156069), wk =   0.0240000
        k(   15) = (   0.0000000   0.4618802   0.2312139), wk =   0.0240000
        k(   16) = (   0.0000000  -0.5773503   0.0000000), wk =   0.0060000
        k(   17) = (   0.0000000  -0.5773503   0.1156069), wk =   0.0120000
        k(   18) = (   0.0000000  -0.5773503   0.2312139), wk =   0.0120000
        k(   19) = (   0.1000000   0.1732051   0.0000000), wk =   0.0120000
        k(   20) = (   0.1000000   0.1732051   0.1156069), wk =   0.0240000
        k(   21) = (   0.1000000   0.1732051   0.2312139), wk =   0.0240000
        k(   22) = (   0.1000000   0.2886751   0.0000000), wk =   0.0240000
        k(   23) = (   0.1000000   0.2886751   0.1156069), wk =   0.0480000
        k(   24) = (   0.1000000   0.2886751   0.2312139), wk =   0.0480000
        k(   25) = (   0.1000000   0.4041452   0.0000000), wk =   0.0240000
        k(   26) = (   0.1000000   0.4041452   0.1156069), wk =   0.0480000
        k(   27) = (   0.1000000   0.4041452   0.2312139), wk =   0.0480000
        k(   28) = (   0.1000000   0.5196152   0.0000000), wk =   0.0240000
        k(   29) = (   0.1000000   0.5196152   0.1156069), wk =   0.0480000
        k(   30) = (   0.1000000   0.5196152   0.2312139), wk =   0.0480000
        k(   31) = (   0.2000000   0.3464102   0.0000000), wk =   0.0120000
        k(   32) = (   0.2000000   0.3464102   0.1156069), wk =   0.0240000
        k(   33) = (   0.2000000   0.3464102   0.2312139), wk =   0.0240000
        k(   34) = (   0.2000000   0.4618802   0.0000000), wk =   0.0240000
        k(   35) = (   0.2000000   0.4618802   0.1156069), wk =   0.0480000
        k(   36) = (   0.2000000   0.4618802   0.2312139), wk =   0.0480000
        k(   37) = (   0.2000000   0.5773503   0.0000000), wk =   0.0120000
        k(   38) = (   0.2000000   0.5773503   0.1156069), wk =   0.0240000
        k(   39) = (   0.2000000   0.5773503   0.2312139), wk =   0.0240000
        k(   40) = (   0.3000000   0.5196152   0.0000000), wk =   0.0120000
        k(   41) = (   0.3000000   0.5196152   0.1156069), wk =   0.0240000
        k(   42) = (   0.3000000   0.5196152   0.2312139), wk =   0.0240000
        k(   43) = (   0.0000000   0.0000000   0.0000000), wk =   0.0020000
        k(   44) = (   0.0000000   0.0000000   0.1156069), wk =   0.0040000
        k(   45) = (   0.0000000   0.0000000   0.2312139), wk =   0.0040000
        k(   46) = (   0.0000000   0.1154701   0.0000000), wk =   0.0120000
        k(   47) = (   0.0000000   0.1154701   0.1156069), wk =   0.0240000
        k(   48) = (   0.0000000   0.1154701   0.2312139), wk =   0.0240000
        k(   49) = (   0.0000000   0.2309401   0.0000000), wk =   0.0120000
        k(   50) = (   0.0000000   0.2309401   0.1156069), wk =   0.0240000
        k(   51) = (   0.0000000   0.2309401   0.2312139), wk =   0.0240000
        k(   52) = (   0.0000000   0.3464102   0.0000000), wk =   0.0120000
        k(   53) = (   0.0000000   0.3464102   0.1156069), wk =   0.0240000
        k(   54) = (   0.0000000   0.3464102   0.2312139), wk =   0.0240000
        k(   55) = (   0.0000000   0.4618802   0.0000000), wk =   0.0120000
        k(   56) = (   0.0000000   0.4618802   0.1156069), wk =   0.0240000
        k(   57) = (   0.0000000   0.4618802   0.2312139), wk =   0.0240000
        k(   58) = (   0.0000000  -0.5773503   0.0000000), wk =   0.0060000
        k(   59) = (   0.0000000  -0.5773503   0.1156069), wk =   0.0120000
        k(   60) = (   0.0000000  -0.5773503   0.2312139), wk =   0.0120000
        k(   61) = (   0.1000000   0.1732051   0.0000000), wk =   0.0120000
        k(   62) = (   0.1000000   0.1732051   0.1156069), wk =   0.0240000
        k(   63) = (   0.1000000   0.1732051   0.2312139), wk =   0.0240000
        k(   64) = (   0.1000000   0.2886751   0.0000000), wk =   0.0240000
        k(   65) = (   0.1000000   0.2886751   0.1156069), wk =   0.0480000
        k(   66) = (   0.1000000   0.2886751   0.2312139), wk =   0.0480000
        k(   67) = (   0.1000000   0.4041452   0.0000000), wk =   0.0240000
        k(   68) = (   0.1000000   0.4041452   0.1156069), wk =   0.0480000
        k(   69) = (   0.1000000   0.4041452   0.2312139), wk =   0.0480000
        k(   70) = (   0.1000000   0.5196152   0.0000000), wk =   0.0240000
        k(   71) = (   0.1000000   0.5196152   0.1156069), wk =   0.0480000
        k(   72) = (   0.1000000   0.5196152   0.2312139), wk =   0.0480000
        k(   73) = (   0.2000000   0.3464102   0.0000000), wk =   0.0120000
        k(   74) = (   0.2000000   0.3464102   0.1156069), wk =   0.0240000
        k(   75) = (   0.2000000   0.3464102   0.2312139), wk =   0.0240000
        k(   76) = (   0.2000000   0.4618802   0.0000000), wk =   0.0240000
        k(   77) = (   0.2000000   0.4618802   0.1156069), wk =   0.0480000
        k(   78) = (   0.2000000   0.4618802   0.2312139), wk =   0.0480000
        k(   79) = (   0.2000000   0.5773503   0.0000000), wk =   0.0120000
        k(   80) = (   0.2000000   0.5773503   0.1156069), wk =   0.0240000
        k(   81) = (   0.2000000   0.5773503   0.2312139), wk =   0.0240000
        k(   82) = (   0.3000000   0.5196152   0.0000000), wk =   0.0120000
        k(   83) = (   0.3000000   0.5196152   0.1156069), wk =   0.0240000
        k(   84) = (   0.3000000   0.5196152   0.2312139), wk =   0.0240000

     Dense  grid:    16205 G-vectors     FFT dimensions: (  27,  27,  48)

     Smooth grid:    11587 G-vectors     FFT dimensions: (  25,  25,  45)

     Largest allocated arrays     est. size (Mb)     dimensions
        Kohn-Sham Wavefunctions         0.45 Mb     (    1465,   20)
        NL pseudopotentials             0.80 Mb     (    1465,   36)
        Each V/rho on FFT grid          1.07 Mb     (   34992,   2)
        Each G-vector array             0.12 Mb     (   16205)
        G-vector shells                 0.01 Mb     (     843)
     Largest temporary arrays     est. size (Mb)     dimensions
        Auxiliary wavefunctions         1.79 Mb     (    1465,   80)
        Each subspace H/S matrix        0.10 Mb     (      80,   80)
        Each <psi_i|beta_j> matrix      0.01 Mb     (      36,   20)
        Arrays for rho mixing           4.27 Mb     (   34992,    8)

     Check: negative/imaginary core charge=   -0.000314    0.000000

     Initial potential from superposition of free atoms

     starting charge   31.99912, renormalised to   32.00000
     Starting wfc are   26 randomized atomic wfcs

     total cpu time spent up to now is        7.4 secs

     Self-consistent Calculation

     iteration #  1     ecut=    50.00 Ry     beta=0.70
     Davidson diagonalization with overlap
     ethr =  1.00E-02,  avg # of iterations =  2.0

     negative rho (up, down):  0.000E+00 1.112E-03

     Magnetic moment per site:
     atom:    1    charge:   14.6170    magn:    5.9502    constr:    0.0000
     atom:    2    charge:   14.6170    magn:    5.9502    constr:    0.0000

     total cpu time spent up to now is       18.4 secs

     total energy              =    -657.95989230 Ry
     Harris-Foulkes estimate   =    -656.24713286 Ry
     estimated scf accuracy    <       2.83579496 Ry

     total magnetization       =     8.00 Bohr mag/cell
     absolute magnetization    =     8.28 Bohr mag/cell

     iteration #  2     ecut=    50.00 Ry     beta=0.70
     Davidson diagonalization with overlap
     ethr =  8.86E-03,  avg # of iterations =  1.6

     negative rho (up, down):  0.000E+00 1.081E-03

     Magnetic moment per site:
     atom:    1    charge:   14.8435    magn:    4.0456    constr:    0.0000
     atom:    2    charge:   14.8435    magn:    4.0456    constr:    0.0000

     total cpu time spent up to now is       29.7 secs

     total energy              =    -658.12628338 Ry
     Harris-Foulkes estimate   =    -658.17725204 Ry
     estimated scf accuracy    <       0.85204970 Ry

     total magnetization       =     6.57 Bohr mag/cell
     absolute magnetization    =     6.86 Bohr mag/cell

     iteration #  3     ecut=    50.00 Ry     beta=0.70
     Davidson diagonalization with overlap
     ethr =  2.66E-03,  avg # of iterations =  3.0

     negative rho (up, down):  0.000E+00 1.273E-03

     Magnetic moment per site:
     atom:    1    charge:   14.7293    magn:    3.0619    constr:    0.0000
     atom:    2    charge:   14.7293    magn:    3.0619    constr:    0.0000

     total cpu time spent up to now is       42.2 secs

     total energy              =    -658.16489841 Ry
     Harris-Foulkes estimate   =    -658.64797171 Ry
     estimated scf accuracy    <       1.35577250 Ry

     total magnetization       =     6.73 Bohr mag/cell
     absolute magnetization    =     7.01 Bohr mag/cell

     iteration #  4     ecut=    50.00 Ry     beta=0.70
     Davidson diagonalization with overlap
     ethr =  2.66E-03,  avg # of iterations =  2.7

     negative rho (up, down):  0.000E+00 1.047E-03

     Magnetic moment per site:
     atom:    1    charge:   14.7883    magn:    3.0107    constr:    0.0000
     atom:    2    charge:   14.7883    magn:    3.0107    constr:    0.0000

     total cpu time spent up to now is       53.5 secs

     total energy              =    -658.39512920 Ry
     Harris-Foulkes estimate   =    -658.39530692 Ry
     estimated scf accuracy    <       0.00670867 Ry

     total magnetization       =     5.88 Bohr mag/cell
     absolute magnetization    =     6.28 Bohr mag/cell

     iteration #  5     ecut=    50.00 Ry     beta=0.70
     Davidson diagonalization with overlap
     ethr =  2.10E-05,  avg # of iterations =  3.3

     negative rho (up, down):  0.000E+00 1.060E-03

     Magnetic moment per site:
     atom:    1    charge:   14.7781    magn:    3.0152    constr:    0.0000
     atom:    2    charge:   14.7781    magn:    3.0152    constr:    0.0000

     total cpu time spent up to now is       68.3 secs

     total energy              =    -658.40222350 Ry
     Harris-Foulkes estimate   =    -658.40119596 Ry
     estimated scf accuracy    <       0.00078831 Ry

     total magnetization       =     5.87 Bohr mag/cell
     absolute magnetization    =     6.24 Bohr mag/cell

     iteration #  6     ecut=    50.00 Ry     beta=0.70
     Davidson diagonalization with overlap
     ethr =  2.46E-06,  avg # of iterations =  2.1

     negative rho (up, down):  0.000E+00 1.074E-03

     Magnetic moment per site:
     atom:    1    charge:   14.7779    magn:    3.0206    constr:    0.0000
     atom:    2    charge:   14.7779    magn:    3.0206    constr:    0.0000

     total cpu time spent up to now is       78.2 secs

     total energy              =    -658.40174066 Ry
     Harris-Foulkes estimate   =    -658.40247312 Ry
     estimated scf accuracy    <       0.00060760 Ry

     total magnetization       =     5.85 Bohr mag/cell
     absolute magnetization    =     6.22 Bohr mag/cell

     iteration #  7     ecut=    50.00 Ry     beta=0.70
     Davidson diagonalization with overlap
     ethr =  1.90E-06,  avg # of iterations =  1.3

     negative rho (up, down):  0.000E+00 1.026E-03

     Magnetic moment per site:
     atom:    1    charge:   14.7762    magn:    3.0041    constr:    0.0000
     atom:    2    charge:   14.7762    magn:    3.0041    constr:    0.0000

     total cpu time spent up to now is       87.6 secs

     total energy              =    -658.40310469 Ry
     Harris-Foulkes estimate   =    -658.40176515 Ry
     estimated scf accuracy    <       0.00136703 Ry

     total magnetization       =     5.85 Bohr mag/cell
     absolute magnetization    =     6.22 Bohr mag/cell

     iteration #  8     ecut=    50.00 Ry     beta=0.70
     Davidson diagonalization with overlap
     ethr =  1.90E-06,  avg # of iterations =  2.6

     negative rho (up, down):  0.000E+00 1.033E-03

     Magnetic moment per site:
     atom:    1    charge:   14.7782    magn:    3.0041    constr:    0.0000
     atom:    2    charge:   14.7782    magn:    3.0041    constr:    0.0000

     total cpu time spent up to now is      100.1 secs

     total energy              =    -658.40347651 Ry
     Harris-Foulkes estimate   =    -658.40355919 Ry
     estimated scf accuracy    <       0.00021345 Ry

     total magnetization       =     5.82 Bohr mag/cell
     absolute magnetization    =     6.18 Bohr mag/cell

     iteration #  9     ecut=    50.00 Ry     beta=0.70
     Davidson diagonalization with overlap
     ethr =  6.67E-07,  avg # of iterations =  1.5

     negative rho (up, down):  0.000E+00 1.022E-03

     Magnetic moment per site:
     atom:    1    charge:   14.7794    magn:    2.9922    constr:    0.0000
     atom:    2    charge:   14.7794    magn:    2.9922    constr:    0.0000

     total cpu time spent up to now is      109.6 secs

     total energy              =    -658.40377173 Ry
     Harris-Foulkes estimate   =    -658.40349038 Ry
     estimated scf accuracy    <       0.00045825 Ry

     total magnetization       =     5.82 Bohr mag/cell
     absolute magnetization    =     6.18 Bohr mag/cell

     iteration # 10     ecut=    50.00 Ry     beta=0.70
     Davidson diagonalization with overlap
     ethr =  6.67E-07,  avg # of iterations =  2.1

     negative rho (up, down):  0.000E+00 1.014E-03

     Magnetic moment per site:
     atom:    1    charge:   14.7799    magn:    2.9845    constr:    0.0000
     atom:    2    charge:   14.7799    magn:    2.9845    constr:    0.0000

     total cpu time spent up to now is      124.7 secs

     total energy              =    -658.40391507 Ry
     Harris-Foulkes estimate   =    -658.40383008 Ry
     estimated scf accuracy    <       0.00015884 Ry

     total magnetization       =     5.81 Bohr mag/cell
     absolute magnetization    =     6.16 Bohr mag/cell

     iteration # 11     ecut=    50.00 Ry     beta=0.70
     Davidson diagonalization with overlap
     ethr =  4.96E-07,  avg # of iterations =  2.1

     negative rho (up, down):  0.000E+00 1.007E-03

     Magnetic moment per site:
     atom:    1    charge:   14.7804    magn:    2.9791    constr:    0.0000
     atom:    2    charge:   14.7804    magn:    2.9791    constr:    0.0000

     total cpu time spent up to now is      134.6 secs

     total energy              =    -658.40397327 Ry
     Harris-Foulkes estimate   =    -658.40394706 Ry
     estimated scf accuracy    <       0.00004622 Ry

     total magnetization       =     5.80 Bohr mag/cell
     absolute magnetization    =     6.15 Bohr mag/cell

     iteration # 12     ecut=    50.00 Ry     beta=0.70
     Davidson diagonalization with overlap
     ethr =  1.44E-07,  avg # of iterations =  2.6

     negative rho (up, down):  0.000E+00 9.938E-04

     Magnetic moment per site:
     atom:    1    charge:   14.7816    magn:    2.9661    constr:    0.0000
     atom:    2    charge:   14.7816    magn:    2.9661    constr:    0.0000

     total cpu time spent up to now is      146.8 secs

     total energy              =    -658.40383592 Ry
     Harris-Foulkes estimate   =    -658.40398745 Ry
     estimated scf accuracy    <       0.00001244 Ry

     total magnetization       =     5.80 Bohr mag/cell
     absolute magnetization    =     6.14 Bohr mag/cell

     iteration # 13     ecut=    50.00 Ry     beta=0.70
     Davidson diagonalization with overlap
     ethr =  3.89E-08,  avg # of iterations =  3.9

     negative rho (up, down):  0.000E+00 1.003E-03

     Magnetic moment per site:
     atom:    1    charge:   14.7808    magn:    2.9749    constr:    0.0000
     atom:    2    charge:   14.7808    magn:    2.9749    constr:    0.0000

     total cpu time spent up to now is      173.5 secs

     total energy              =    -658.40399612 Ry
     Harris-Foulkes estimate   =    -658.40388279 Ry
     estimated scf accuracy    <       0.00004042 Ry

     total magnetization       =     5.79 Bohr mag/cell
     absolute magnetization    =     6.13 Bohr mag/cell

     iteration # 14     ecut=    50.00 Ry     beta=0.70
     Davidson diagonalization with overlap
     ethr =  3.89E-08,  avg # of iterations =  2.7

     negative rho (up, down):  0.000E+00 1.003E-03

     Magnetic moment per site:
     atom:    1    charge:   14.7808    magn:    2.9750    constr:    0.0000
     atom:    2    charge:   14.7808    magn:    2.9750    constr:    0.0000

     total cpu time spent up to now is      190.1 secs

     total energy              =    -658.40400738 Ry
     Harris-Foulkes estimate   =    -658.40400859 Ry
     estimated scf accuracy    <       0.00000403 Ry

     total magnetization       =     5.79 Bohr mag/cell
     absolute magnetization    =     6.13 Bohr mag/cell

     iteration # 15     ecut=    50.00 Ry     beta=0.70
     Davidson diagonalization with overlap
     ethr =  1.26E-08,  avg # of iterations =  1.0

     negative rho (up, down):  0.000E+00 1.001E-03

     Magnetic moment per site:
     atom:    1    charge:   14.7810    magn:    2.9728    constr:    0.0000
     atom:    2    charge:   14.7810    magn:    2.9728    constr:    0.0000

     total cpu time spent up to now is      205.5 secs

     total energy              =    -658.40401119 Ry
     Harris-Foulkes estimate   =    -658.40400744 Ry
     estimated scf accuracy    <       0.00000468 Ry

     total magnetization       =     5.79 Bohr mag/cell
     absolute magnetization    =     6.13 Bohr mag/cell

     iteration # 16     ecut=    50.00 Ry     beta=0.70
     Davidson diagonalization with overlap
     ethr =  1.26E-08,  avg # of iterations =  2.0

     negative rho (up, down):  0.000E+00 1.001E-03

     Magnetic moment per site:
     atom:    1    charge:   14.7810    magn:    2.9727    constr:    0.0000
     atom:    2    charge:   14.7810    magn:    2.9727    constr:    0.0000

     total cpu time spent up to now is      216.5 secs

     total energy              =    -658.40401240 Ry
     Harris-Foulkes estimate   =    -658.40401224 Ry
     estimated scf accuracy    <       0.00000017 Ry

     total magnetization       =     5.79 Bohr mag/cell
     absolute magnetization    =     6.13 Bohr mag/cell

     iteration # 17     ecut=    50.00 Ry     beta=0.70
     Davidson diagonalization with overlap
     ethr =  5.23E-10,  avg # of iterations =  2.7

     negative rho (up, down):  0.000E+00 1.001E-03

     Magnetic moment per site:
     atom:    1    charge:   14.7810    magn:    2.9726    constr:    0.0000
     atom:    2    charge:   14.7810    magn:    2.9726    constr:    0.0000

     total cpu time spent up to now is      227.1 secs

     total energy              =    -658.40401249 Ry
     Harris-Foulkes estimate   =    -658.40401244 Ry
     estimated scf accuracy    <       0.00000023 Ry

     total magnetization       =     5.79 Bohr mag/cell
     absolute magnetization    =     6.13 Bohr mag/cell

     iteration # 18     ecut=    50.00 Ry     beta=0.70
     Davidson diagonalization with overlap
     ethr =  5.23E-10,  avg # of iterations =  1.6

     negative rho (up, down):  0.000E+00 1.000E-03

     Magnetic moment per site:
     atom:    1    charge:   14.7811    magn:    2.9717    constr:    0.0000
     atom:    2    charge:   14.7811    magn:    2.9717    constr:    0.0000

     total cpu time spent up to now is      237.3 secs

     total energy              =    -658.40401214 Ry
     Harris-Foulkes estimate   =    -658.40401251 Ry
     estimated scf accuracy    <       0.00000015 Ry

     total magnetization       =     5.79 Bohr mag/cell
     absolute magnetization    =     6.13 Bohr mag/cell

     iteration # 19     ecut=    50.00 Ry     beta=0.70
     Davidson diagonalization with overlap
     ethr =  4.83E-10,  avg # of iterations =  3.0

     negative rho (up, down):  0.000E+00 1.000E-03

     Magnetic moment per site:
     atom:    1    charge:   14.7811    magn:    2.9721    constr:    0.0000
     atom:    2    charge:   14.7811    magn:    2.9721    constr:    0.0000

     total cpu time spent up to now is      249.1 secs

     total energy              =    -658.40401260 Ry
     Harris-Foulkes estimate   =    -658.40401232 Ry
     estimated scf accuracy    <       0.00000010 Ry

     total magnetization       =     5.79 Bohr mag/cell
     absolute magnetization    =     6.13 Bohr mag/cell

     iteration # 20     ecut=    50.00 Ry     beta=0.70
     Davidson diagonalization with overlap
     ethr =  3.00E-10,  avg # of iterations =  2.1

     negative rho (up, down):  0.000E+00 1.000E-03

     Magnetic moment per site:
     atom:    1    charge:   14.7811    magn:    2.9721    constr:    0.0000
     atom:    2    charge:   14.7811    magn:    2.9721    constr:    0.0000

     total cpu time spent up to now is      259.3 secs

     End of self-consistent calculation

 ------ SPIN UP ------------


          k = 0.0000 0.0000 0.0000 (  1449 PWs)   bands (ev):

   -77.9538 -77.9471 -44.0216 -44.0216 -44.0136 -44.0136 -43.9178 -43.8579
     3.8562   6.9095   8.1686   8.1686   8.2873   8.2873   8.3450   8.3450
     8.4510   8.7871   8.7871  10.1048

          k = 0.0000 0.0000 0.1156 (  1449 PWs)   bands (ev):

   -77.9533 -77.9477 -44.0207 -44.0207 -44.0149 -44.0149 -43.9119 -43.8635
     4.1112   6.6985   8.1237   8.1237   8.2445   8.2445   8.4154   8.4443
     8.4443   8.7774   8.7774   9.1622

          k = 0.0000 0.0000 0.2312 (  1438 PWs)   bands (ev):

   -77.9513 -77.9494 -44.0186 -44.0186 -44.0166 -44.0166 -43.8976 -43.8787
     4.8416   5.8798   8.1084   8.1084   8.1610   8.1610   8.3532   8.4437
     8.6014   8.6014   8.7222   8.7222

          k = 0.0000 0.1155 0.0000 (  1451 PWs)   bands (ev):

   -77.9530 -77.9466 -44.0284 -44.0238 -44.0207 -44.0156 -43.9155 -43.8581
     4.1142   7.0748   8.0819   8.2222   8.2379   8.2623   8.2990   8.3735
     8.4366   8.5379   8.8000  10.7710

          k = 0.0000 0.1155 0.1156 (  1441 PWs)   bands (ev):

   -77.9521 -77.9471 -44.0275 -44.0227 -44.0214 -44.0161 -43.9103 -43.8633
     4.3654   6.8805   8.0532   8.1069   8.1871   8.2751   8.3206   8.4060
     8.4398   8.5814   8.7876   9.7600

          k = 0.0000 0.1155 0.2312 (  1439 PWs)   bands (ev):

   -77.9504 -77.9487 -44.0260 -44.0236 -44.0207 -44.0179 -43.8962 -43.8780
     5.0812   6.0920   8.0066   8.0339   8.1746   8.2339   8.2620   8.3121
     8.6008   8.7264   8.7303   9.0133

          k = 0.0000 0.2309 0.0000 (  1441 PWs)   bands (ev):

   -77.9505 -77.9450 -44.0456 -44.0379 -44.0288 -44.0189 -43.9100 -43.8597
     4.8546   7.3984   7.7368   7.9774   8.1568   8.1913   8.2255   8.5174
     8.6064   8.7609   8.8210  12.0515

          k = 0.0000 0.2309 0.1156 (  1436 PWs)   bands (ev):

   -77.9498 -77.9455 -44.0451 -44.0390 -44.0277 -44.0197 -43.9052 -43.8642
     5.0854   7.2442   7.7086   7.9551   8.1326   8.2121   8.2737   8.5178
     8.5863   8.7875   8.8160  10.6052

          k = 0.0000 0.2309 0.2312 (  1445 PWs)   bands (ev):

   -77.9486 -77.9470 -44.0436 -44.0413 -44.0256 -44.0224 -43.8924 -43.8767
     5.7303   6.5959   7.7845   7.8974   8.1702   8.2459   8.2831   8.4008
     8.6737   8.7682   8.9520   9.4511

          k = 0.0000 0.3464 0.0000 (  1449 PWs)   bands (ev):

   -77.9478 -77.9432 -44.0672 -44.0597 -44.0348 -44.0236 -43.9018 -43.8629
     5.9190   7.3296   7.3623   8.0131   8.0633   8.0734   8.4186   8.8329
     8.8538   8.9117   9.1481  13.6337

          k = 0.0000 0.3464 0.1156 (  1450 PWs)   bands (ev):

   -77.9473 -77.9437 -44.0667 -44.0607 -44.0338 -44.0247 -43.8980 -43.8664
     6.0715   7.2043   7.4683   7.8212   8.1300   8.3273   8.4486   8.7083
     8.8737   8.9497   9.1161  11.6017

          k = 0.0000 0.3464 0.2312 (  1443 PWs)   bands (ev):

   -77.9461 -77.9447 -44.0652 -44.0626 -44.0313 -44.0277 -43.8874 -43.8755
     6.4543   6.8867   7.6279   7.7427   8.2856   8.4987   8.5333   8.6070
     8.9123   8.9485   9.1903  10.0151

          k = 0.0000 0.4619 0.0000 (  1444 PWs)   bands (ev):

   -77.9451 -77.9421 -44.0845 -44.0765 -44.0397 -44.0275 -43.8933 -43.8665
     6.7556   7.0906   7.1805   7.9379   7.9854   8.3714   8.7373   8.8358
     9.1382   9.1836   9.8969  14.0142

          k = 0.0000 0.4619 0.1156 (  1456 PWs)   bands (ev):

   -77.9450 -77.9425 -44.0844 -44.0779 -44.0385 -44.0289 -43.8909 -43.8693
     6.6867   7.0818   7.3441   7.6839   8.0560   8.6730   8.7374   8.9600
     9.1458   9.1873   9.8087  12.7455

          k = 0.0000 0.4619 0.2312 (  1447 PWs)   bands (ev):

   -77.9441 -77.9431 -44.0829 -44.0804 -44.0355 -44.0319 -43.8830 -43.8752
     6.7161   6.8999   7.5228   7.5865   8.2487   8.5060   9.0216   9.1638
     9.1816   9.3848   9.8924  11.0804

          k = 0.0000-0.5774 0.0000 (  1448 PWs)   bands (ev):

   -77.9440 -77.9419 -44.0913 -44.0836 -44.0414 -44.0285 -43.8896 -43.8690
     6.9723   7.0129   7.0752   7.8903   7.9531   8.7225   8.8114   8.8357
     9.2464   9.2981  11.1029  12.1995

          k = 0.0000-0.5774 0.1156 (  1450 PWs)   bands (ev):

   -77.9441 -77.9419 -44.0909 -44.0842 -44.0402 -44.0307 -43.8868 -43.8712
     6.7582   7.0553   7.3245   7.6351   8.0279   8.7392   8.8074   9.2096
     9.2531   9.2939  11.0627  12.1275

          k = 0.0000-0.5774 0.2312 (  1452 PWs)   bands (ev):

   -77.9433 -77.9426 -44.0894 -44.0874 -44.0374 -44.0335 -43.8812 -43.8751
     6.7304   6.8913   7.5055   7.5067   8.2317   8.5019   9.1443   9.2674
     9.2825   9.4955  11.2358  11.7957

          k = 0.1000 0.1732 0.0000 (  1432 PWs)   bands (ev):

   -77.9510 -77.9453 -44.0392 -44.0337 -44.0258 -44.0188 -43.9116 -43.8586
     4.6156   7.3489   7.8918   7.9431   8.1420   8.1655   8.3407   8.4670
     8.5071   8.7087   8.8046  11.6787

          k = 0.1000 0.1732 0.1156 (  1444 PWs)   bands (ev):

   -77.9506 -77.9461 -44.0389 -44.0344 -44.0256 -44.0198 -43.9069 -43.8640
     4.8542   7.1800   7.8124   7.9374   8.1588   8.2041   8.2900   8.4567
     8.5442   8.7328   8.8013  10.3720

          k = 0.1000 0.1732 0.2312 (  1441 PWs)   bands (ev):

   -77.9491 -77.9475 -44.0374 -44.0356 -44.0241 -44.0219 -43.8934 -43.8770
     5.5297   6.4630   7.8402   7.9202   8.1623   8.2067   8.2758   8.3580
     8.6595   8.7565   8.8904   9.3319

          k = 0.1000 0.2887 0.0000 (  1446 PWs)   bands (ev):

   -77.9487 -77.9438 -44.0573 -44.0522 -44.0328 -44.0246 -43.9051 -43.8615
     5.5397   7.4819   7.5393   7.8715   7.9940   8.1664   8.2267   8.7238
     8.8040   8.8313   9.0581  13.0502

          k = 0.1000 0.2887 0.1156 (  1446 PWs)   bands (ev):

   -77.9482 -77.9443 -44.0568 -44.0526 -44.0325 -44.0255 -43.9006 -43.8655
     5.7360   7.3291   7.6008   7.8507   8.0647   8.1799   8.2239   8.6337
     8.8400   8.8714   9.0554  11.2440

          k = 0.1000 0.2887 0.2312 (  1438 PWs)   bands (ev):

   -77.9469 -77.9454 -44.0557 -44.0537 -44.0304 -44.0278 -43.8890 -43.8758
     6.2618   6.8883   7.7202   7.8248   8.1353   8.1928   8.2952   8.4647
     8.9426   8.9896   9.0995   9.8089

          k = 0.1000 0.4041 0.0000 (  1451 PWs)   bands (ev):

   -77.9460 -77.9425 -44.0760 -44.0692 -44.0402 -44.0298 -43.8968 -43.8653
     6.5773   7.1979   7.3572   7.8959   8.0129   8.0754   8.4706   8.8006
     8.9933   9.1809   9.6367  14.4694

          k = 0.1000 0.4041 0.1156 (  1446 PWs)   bands (ev):

   -77.9456 -77.9427 -44.0754 -44.0702 -44.0394 -44.0307 -43.8931 -43.8679
     6.6181   7.1787   7.4339   7.7384   8.0654   8.3350   8.4907   8.6979
     9.0303   9.2321   9.6063  12.4110

          k = 0.1000 0.4041 0.2312 (  1445 PWs)   bands (ev):

   -77.9448 -77.9436 -44.0744 -44.0723 -44.0369 -44.0337 -43.8843 -43.8751
     6.7580   6.9844   7.6011   7.7046   8.1850   8.4126   8.5926   8.6188
     9.2119   9.3455   9.6946  10.7085

          k = 0.1000 0.5196 0.0000 (  1456 PWs)   bands (ev):

   -77.9442 -77.9419 -44.0877 -44.0800 -44.0446 -44.0331 -43.8897 -43.8698
     7.0436   7.0594   7.2021   7.8741   7.9457   8.4396   8.6693   8.7967
     9.2202   9.3550  10.7906  13.1288

          k = 0.1000 0.5196 0.1156 (  1447 PWs)   bands (ev):

   -77.9438 -77.9419 -44.0872 -44.0810 -44.0434 -44.0340 -43.8872 -43.8710
     6.8421   7.1608   7.3890   7.6497   7.9695   8.6559   8.7226   8.7842
     9.2300   9.4209  10.8185  12.9182

          k = 0.1000 0.5196 0.2312 (  1449 PWs)   bands (ev):

   -77.9433 -77.9426 -44.0859 -44.0835 -44.0407 -44.0370 -43.8813 -43.8753
     6.8249   6.9888   7.5486   7.5971   8.1267   8.4157   8.9126   8.9684
     9.3155   9.4852  11.1346  12.0126

          k = 0.2000 0.3464 0.0000 (  1452 PWs)   bands (ev):

   -77.9463 -77.9427 -44.0678 -44.0672 -44.0416 -44.0338 -43.8978 -43.8648
     6.5203   7.2724   7.6291   7.7103   7.8382   8.1382   8.2617   8.7616
     8.8872   9.2277   9.6165  14.4616

          k = 0.2000 0.3464 0.1156 (  1452 PWs)   bands (ev):

   -77.9459 -77.9430 -44.0680 -44.0674 -44.0411 -44.0347 -43.8942 -43.8677
     6.6153   7.2219   7.6412   7.7679   7.9633   8.1024   8.2523   8.6463
     8.9698   9.2693   9.6200  12.2942

          k = 0.2000 0.3464 0.2312 (  1440 PWs)   bands (ev):

   -77.9449 -77.9438 -44.0679 -44.0675 -44.0394 -44.0368 -43.8848 -43.8749
     6.8391   7.0697   7.7215   7.8100   8.1097   8.1225   8.2689   8.4303
     9.2477   9.3388   9.7377  10.6414

          k = 0.2000 0.4619 0.0000 (  1460 PWs)   bands (ev):

   -77.9442 -77.9420 -44.0793 -44.0741 -44.0511 -44.0421 -43.8899 -43.8697
     7.1508   7.2619   7.4766   7.7850   7.8925   7.9863   8.4600   8.7283
     9.1003   9.4241  10.6287  14.8526

          k = 0.2000 0.4619 0.1156 (  1455 PWs)   bands (ev):

   -77.9439 -77.9421 -44.0788 -44.0748 -44.0504 -44.0429 -43.8872 -43.8709
     7.0660   7.3036   7.5144   7.7300   7.9231   8.1503   8.4686   8.6303
     9.1585   9.4603  10.7122  13.7037

          k = 0.2000 0.4619 0.2312 (  1456 PWs)   bands (ev):

   -77.9433 -77.9427 -44.0778 -44.0764 -44.0485 -44.0456 -43.8814 -43.8753
     7.0572   7.1683   7.6523   7.7901   7.9600   8.1950   8.4986   8.5113
     9.3487   9.4840  11.1063  12.1157

          k = 0.2000 0.5774 0.0000 (  1456 PWs)   bands (ev):

   -77.9431 -77.9418 -44.0834 -44.0758 -44.0556 -44.0448 -43.8853 -43.8729
     7.1127   7.3794   7.4098   7.8281   7.8630   8.1280   8.5582   8.7162
     9.2383   9.4294  12.1432  12.7752

          k = 0.2000 0.5774 0.1156 (  1457 PWs)   bands (ev):

   -77.9430 -77.9419 -44.0830 -44.0768 -44.0548 -44.0460 -43.8834 -43.8734
     7.0489   7.4151   7.5503   7.6370   7.8286   8.3044   8.5882   8.6344
     9.2729   9.4691  12.3054  12.8343

          k = 0.2000 0.5774 0.2312 (  1457 PWs)   bands (ev):

   -77.9427 -77.9422 -44.0815 -44.0791 -44.0523 -44.0490 -43.8794 -43.8757
     7.0618   7.2254   7.6442   7.7638   7.8638   8.1884   8.6276   8.6431
     9.3861   9.4905  12.7280  12.9516

          k = 0.3000 0.5196 0.0000 (  1448 PWs)   bands (ev):

   -77.9425 -77.9418 -44.0769 -44.0713 -44.0621 -44.0543 -43.8824 -43.8746
     7.1613   7.5788   7.7161   7.7594   7.7660   7.8552   8.4553   8.6747
     9.2549   9.4155  12.2740  14.4696

          k = 0.3000 0.5196 0.1156 (  1453 PWs)   bands (ev):

   -77.9425 -77.9419 -44.0761 -44.0716 -44.0624 -44.0559 -43.8810 -43.8748
     7.2100   7.4929   7.6594   7.6652   7.9046   7.9750   8.4425   8.5800
     9.3034   9.4463  12.4496  14.4944

          k = 0.3000 0.5196 0.2312 (  1465 PWs)   bands (ev):

   -77.9425 -77.9422 -44.0745 -44.0730 -44.0617 -44.0589 -43.8783 -43.8761
     7.3013   7.3735   7.6421   7.6684   7.9734   8.0427   8.4227   8.4442
     9.4139   9.4755  12.9905  13.9008

 ------ SPIN DOWN ----------


          k = 0.0000 0.0000 0.0000 (  1449 PWs)   bands (ev):

   -74.5593 -74.5517 -40.6723 -40.6723 -40.6634 -40.6634 -40.6553 -40.5842
     4.1164   7.8882  10.0993  10.2124  10.8340  10.8340  11.0000  11.0000
    12.0522  12.0522  12.6429  12.6429

          k = 0.0000 0.0000 0.1156 (  1449 PWs)   bands (ev):

   -74.5586 -74.5524 -40.6714 -40.6714 -40.6647 -40.6647 -40.6483 -40.5909
     4.3722   7.3966   9.9060  10.0408  10.8310  10.8310  10.9679  10.9679
    12.1292  12.1292  12.6049  12.6049

          k = 0.0000 0.0000 0.2312 (  1438 PWs)   bands (ev):

   -74.5565 -74.5542 -40.6692 -40.6692 -40.6667 -40.6667 -40.6310 -40.6089
     5.1137   6.2325   9.7837   9.9000  10.8454  10.8454  10.8991  10.8991
    12.3069  12.3069  12.4874  12.4874

          k = 0.0000 0.1155 0.0000 (  1451 PWs)   bands (ev):

   -74.5583 -74.5511 -40.6804 -40.6749 -40.6716 -40.6656 -40.6527 -40.5845
     4.3752   8.0868  10.1033  10.1361  10.7559  10.9222  10.9478  11.1051
    11.9419  11.9816  12.6645  13.0150

          k = 0.0000 0.1155 0.1156 (  1441 PWs)   bands (ev):

   -74.5574 -74.5518 -40.6797 -40.6737 -40.6726 -40.6662 -40.6461 -40.5908
     4.6291   7.6133   9.8511  10.0841  10.7364  10.9007  10.9423  11.0722
    12.0344  12.0686  12.6163  12.7495

          k = 0.0000 0.1155 0.2312 (  1439 PWs)   bands (ev):

   -74.5556 -74.5536 -40.6780 -40.6752 -40.6715 -40.6684 -40.6290 -40.6079
     5.3629   6.4688   9.7875   9.9365  10.7427  10.8157  10.9528  11.0039
    12.2574  12.2682  12.4750  12.5035

          k = 0.0000 0.2309 0.0000 (  1441 PWs)   bands (ev):

   -74.5555 -74.5493 -40.7008 -40.6921 -40.6808 -40.6695 -40.6459 -40.5864
     5.1282   8.5971   9.9110  10.1406  10.5827  10.8506  11.2620  11.3908
    11.6994  11.8197  12.6990  13.9219

          k = 0.0000 0.2309 0.1156 (  1436 PWs)   bands (ev):

   -74.5549 -74.5499 -40.7006 -40.6935 -40.6796 -40.6705 -40.6398 -40.5917
     5.3726   8.1984   9.7439  10.1452  10.5262  10.7911  11.2465  11.3549
    11.8312  11.9328  12.6282  13.0704

          k = 0.0000 0.2309 0.2312 (  1445 PWs)   bands (ev):

   -74.5534 -74.5515 -40.6993 -40.6965 -40.6771 -40.6735 -40.6242 -40.6059
     6.0781   7.1373   9.7951  10.0242  10.4984  10.6391  11.2449  11.2894
    12.1489  12.1773  12.4361  12.5402

          k = 0.0000 0.3464 0.0000 (  1449 PWs)   bands (ev):

   -74.5524 -74.5473 -40.7263 -40.7176 -40.6879 -40.6750 -40.6362 -40.5902
     6.2917   9.0857   9.7907  10.0223  10.3850  11.1450  11.4060  11.6453
    11.6892  11.7701  12.7182  14.8531

          k = 0.0000 0.3464 0.1156 (  1450 PWs)   bands (ev):

   -74.5519 -74.5478 -40.7262 -40.7191 -40.6867 -40.6763 -40.6312 -40.5940
     6.5131   8.8650   9.6502  10.1228  10.3115  10.9123  11.6003  11.6547
    11.7272  11.8500  12.6218  13.4781

          k = 0.0000 0.3464 0.2312 (  1443 PWs)   bands (ev):

   -74.5505 -74.5490 -40.7249 -40.7220 -40.6837 -40.6796 -40.6183 -40.6044
     7.1448   8.0502   9.7716  10.0594  10.3284  10.6047  11.6147  11.6724
    12.0583  12.0940  12.3806  12.6040

          k = 0.0000 0.4619 0.0000 (  1444 PWs)   bands (ev):

   -74.5493 -74.5459 -40.7469 -40.7375 -40.6935 -40.6795 -40.6262 -40.5947
     7.6398   9.1535   9.7599   9.8573  10.4232  11.1558  11.5166  11.7669
    12.0636  12.1149  12.7230  14.7889

          k = 0.0000 0.4619 0.1156 (  1456 PWs)   bands (ev):

   -74.5491 -74.5463 -40.7469 -40.7394 -40.6922 -40.6811 -40.6228 -40.5975
     7.7958   9.0955   9.6145  10.0151  10.3839  11.1566  11.6023  11.7958
    12.0807  12.0964  12.6001  13.8501

          k = 0.0000 0.4619 0.2312 (  1447 PWs)   bands (ev):

   -74.5482 -74.5471 -40.7458 -40.7428 -40.6887 -40.6845 -40.6132 -40.6039
     8.2151   8.7347   9.7112   9.9420  10.5664  10.9378  11.8235  12.0229
    12.0787  12.1441  12.3282  12.7401

          k = 0.0000-0.5774 0.0000 (  1448 PWs)   bands (ev):

   -74.5480 -74.5456 -40.7548 -40.7457 -40.6956 -40.6809 -40.6217 -40.5977
     8.4668   9.0011   9.7269   9.7634  10.4831  11.0532  11.4696  12.2051
    12.2679  12.4931  12.7232  13.5605

          k = 0.0000-0.5774 0.1156 (  1450 PWs)   bands (ev):

   -74.5480 -74.5456 -40.7547 -40.7469 -40.6943 -40.6831 -40.6181 -40.5997
     8.5295   8.9902   9.6689   9.8585  10.4780  11.3137  11.5679  12.2073
    12.2524  12.2637  12.5811  13.3824

          k = 0.0000-0.5774 0.2312 (  1452 PWs)   bands (ev):

   -74.5472 -74.5465 -40.7535 -40.7509 -40.6908 -40.6864 -40.6112 -40.6040
     8.6884   8.8774   9.7160   9.8785  10.7565  11.3933  11.8391  12.1573
    12.1687  12.2544  12.2864  12.8402

          k = 0.1000 0.1732 0.0000 (  1432 PWs)   bands (ev):

   -74.5562 -74.5498 -40.6932 -40.6871 -40.6774 -40.6694 -40.6479 -40.5854
     4.8821   8.4467   9.9628  10.1530  10.6726  10.7791  11.1717  11.3162
    11.7301  11.9166  12.6727  13.6490

          k = 0.1000 0.1732 0.1156 (  1444 PWs)   bands (ev):

   -74.5557 -74.5505 -40.6931 -40.6879 -40.6772 -40.6705 -40.6418 -40.5915
     5.1294   8.0191   9.7744  10.1372  10.5927  10.7787  11.1567  11.2777
    11.8787  11.9889  12.6097  12.9864

          k = 0.1000 0.1732 0.2312 (  1441 PWs)   bands (ev):

   -74.5541 -74.5521 -40.6919 -40.6896 -40.6755 -40.6729 -40.6256 -40.6064
     5.8457   6.9249   9.7957  10.0023  10.5592  10.6706  11.1607  11.2091
    12.1885  12.1965  12.4347  12.5414

          k = 0.1000 0.2887 0.0000 (  1446 PWs)   bands (ev):

   -74.5535 -74.5480 -40.7145 -40.7087 -40.6857 -40.6761 -40.6400 -40.5887
     5.8457   8.9850   9.8351  10.0243  10.5277  10.8370  11.4633  11.5482
    11.6911  11.7500  12.6737  14.7214

          k = 0.1000 0.2887 0.1156 (  1446 PWs)   bands (ev):

   -74.5529 -74.5485 -40.7145 -40.7095 -40.6852 -40.6772 -40.6343 -40.5930
     6.0779   8.6859   9.6864  10.0830  10.4570  10.7138  11.4780  11.6005
    11.7325  11.8829  12.5896  13.3646

          k = 0.1000 0.2887 0.2312 (  1438 PWs)   bands (ev):

   -74.5515 -74.5498 -40.7137 -40.7114 -40.6829 -40.6799 -40.6202 -40.6047
     6.7493   7.7380   9.8040  10.0984  10.2977  10.5067  11.4947  11.5657
    12.0999  12.1148  12.3755  12.6135

          k = 0.1000 0.4041 0.0000 (  1451 PWs)   bands (ev):

   -74.5503 -74.5464 -40.7367 -40.7288 -40.6942 -40.6822 -40.6301 -40.5931
     7.1314   9.2677   9.7972   9.8717  10.4371  11.2259  11.2551  11.5425
    11.9118  12.1348  12.6696  15.2419

          k = 0.1000 0.4041 0.1156 (  1446 PWs)   bands (ev):

   -74.5499 -74.5467 -40.7364 -40.7303 -40.6933 -40.6834 -40.6254 -40.5959
     7.3265   9.1842   9.6250  10.0214  10.3444  10.9269  11.5360  11.5950
    12.0094  12.0896  12.5773  13.9132

          k = 0.1000 0.4041 0.2312 (  1445 PWs)   bands (ev):

   -74.5489 -74.5476 -40.7357 -40.7332 -40.6905 -40.6868 -40.6147 -40.6038
     7.8681   8.6046   9.7605  10.0459  10.2895  10.5875  11.6818  11.9022
    12.0357  12.1928  12.4064  12.8214

          k = 0.1000 0.5196 0.0000 (  1456 PWs)   bands (ev):

   -74.5482 -74.5456 -40.7506 -40.7414 -40.6995 -40.6860 -40.6218 -40.5983
     8.3399   9.1716   9.7112   9.8156  10.5237  11.0722  11.4059  11.8215
    12.0764  12.6465  12.6640  14.2747

          k = 0.1000 0.5196 0.1156 (  1447 PWs)   bands (ev):

   -74.5479 -74.5457 -40.7504 -40.7430 -40.6981 -40.6872 -40.6184 -40.5995
     8.4440   9.1624   9.6335   9.9544  10.4522  11.0940  11.5134  11.8469
    12.1071  12.4008  12.7210  13.9673

          k = 0.1000 0.5196 0.2312 (  1449 PWs)   bands (ev):

   -74.5472 -74.5464 -40.7493 -40.7465 -40.6950 -40.6907 -40.6111 -40.6040
     8.7032   8.9941   9.7370   9.9589  10.5540  10.9237  11.7624  11.9914
    12.0124  12.1887  12.7809  13.2579

          k = 0.2000 0.3464 0.0000 (  1452 PWs)   bands (ev):

   -74.5506 -74.5466 -40.7270 -40.7266 -40.6958 -40.6869 -40.6313 -40.5926
     6.9510   9.3856   9.7898   9.8345  10.5651  10.9160  11.2249  11.5713
    11.8527  12.1694  12.6134  15.3502

          k = 0.2000 0.3464 0.1156 (  1452 PWs)   bands (ev):

   -74.5503 -74.5470 -40.7276 -40.7269 -40.6954 -40.6880 -40.6266 -40.5956
     7.1579   9.3030   9.6392   9.8603  10.5745  10.6156  11.4548  11.5495
    12.0270  12.0965  12.5502  13.9586

          k = 0.2000 0.3464 0.2312 (  1440 PWs)   bands (ev):

   -74.5491 -74.5479 -40.7281 -40.7276 -40.6936 -40.6906 -40.6151 -40.6036
     7.7442   8.5724   9.8252  10.0445  10.2247  10.3625  11.5863  11.8693
    12.0471  12.1961  12.4612  12.8950

          k = 0.2000 0.4619 0.0000 (  1460 PWs)   bands (ev):

   -74.5482 -74.5457 -40.7406 -40.7345 -40.7070 -40.6965 -40.6220 -40.5982
     8.1958   9.4400   9.6492   9.9136  10.6602  11.0750  11.2681  11.3226
    11.9427  12.5657  12.7816  15.6925

          k = 0.2000 0.4619 0.1156 (  1455 PWs)   bands (ev):

   -74.5479 -74.5459 -40.7403 -40.7355 -40.7064 -40.6977 -40.6184 -40.5993
     8.3480   9.5121   9.6120   9.9036  10.5302  10.8189  11.2998  11.5568
    12.0724  12.3137  12.8986  14.8431

          k = 0.2000 0.4619 0.2312 (  1456 PWs)   bands (ev):

   -74.5473 -74.5465 -40.7396 -40.7379 -40.7044 -40.7009 -40.6110 -40.6038
     8.7517   9.2422   9.7924  10.0085  10.2599  10.4423  11.5027  11.8804
    11.9646  12.1737  13.1042  13.7056

          k = 0.2000 0.5774 0.0000 (  1456 PWs)   bands (ev):

   -74.5470 -74.5455 -40.7454 -40.7364 -40.7123 -40.6998 -40.6166 -40.6019
     8.9140   9.3474   9.5451   9.9706  10.7212  11.0350  11.1871  11.6840
    11.7636  12.5479  13.5707  14.2121

          k = 0.2000 0.5774 0.1156 (  1457 PWs)   bands (ev):

   -74.5468 -74.5456 -40.7452 -40.7379 -40.7115 -40.7013 -40.6139 -40.6023
     9.0039   9.3835   9.5925  10.0281  10.5332  10.8516  11.3163  11.7533
    11.8959  12.3153  13.7057  14.2120

          k = 0.2000 0.5774 0.2312 (  1457 PWs)   bands (ev):

   -74.5465 -74.5460 -40.7439 -40.7411 -40.7089 -40.7050 -40.6086 -40.6043
     9.2031   9.3588   9.8100  10.1134  10.2806  10.5288  11.5424  11.8705
    11.9217  12.0278  13.9662  14.1665

          k = 0.3000 0.5196 0.0000 (  1448 PWs)   bands (ev):

   -74.5463 -74.5454 -40.7376 -40.7309 -40.7203 -40.7111 -40.6133 -40.6041
     9.0737   9.4476   9.5440  10.0792  10.9280  11.0042  11.0733  11.3754
    11.7061  12.4907  13.8181  15.4559

          k = 0.3000 0.5196 0.1156 (  1453 PWs)   bands (ev):

   -74.5463 -74.5456 -40.7368 -40.7318 -40.7208 -40.7129 -40.6112 -40.6039
     9.1936   9.5387   9.6056  10.0365  10.6913  10.7269  11.1103  11.6140
    11.8612  12.2498  13.9852  15.4456

          k = 0.3000 0.5196 0.2312 (  1465 PWs)   bands (ev):

   -74.5462 -74.5459 -40.7355 -40.7339 -40.7200 -40.7166 -40.6073 -40.6046
     9.4875   9.6843   9.8010  10.0079  10.2021  10.3197  11.3723  11.7882
    11.8850  11.9805  14.3969  15.0303

     the Fermi energy is    10.6657 ev

!    total energy              =    -658.40401263 Ry
     Harris-Foulkes estimate   =    -658.40401263 Ry
     estimated scf accuracy    <          8.6E-09 Ry

     total all-electron energy =     -5090.997084 Ry

     The total energy is the sum of the following terms:

     one-electron contribution =    -300.12284166 Ry
     hartree contribution      =     162.01224704 Ry
     xc contribution           =     -69.40298724 Ry
     ewald contribution        =    -298.61248900 Ry
     one-center paw contrib.   =    -152.27743547 Ry
     smearing contrib. (-TS)   =      -0.00050630 Ry

     total magnetization       =     5.79 Bohr mag/cell
     absolute magnetization    =     6.13 Bohr mag/cell

     convergence has been achieved in  20 iterations

     Forces acting on atoms (Ry/au):


     negative rho (up, down):  0.000E+00 1.000E-03
     atom    1 type  1   force =    -0.00000000   -0.00000000    0.00000000
     atom    2 type  1   force =     0.00000000    0.00000000    0.00000000

     Total force =     0.000000     Total SCF correction =     0.000000


     entering subroutine stress ...


     negative rho (up, down):  0.000E+00 1.000E-03
          total   stress  (Ry/bohr**3)                   (kbar)     P= -291.91
  -0.00210160   0.00000000   0.00000000       -309.16      0.00      0.00
   0.00000000  -0.00210160  -0.00000000          0.00   -309.16     -0.00
   0.00000000  -0.00000000  -0.00174985          0.00     -0.00   -257.41


     Writing output data file Fe_hcp.save

     init_run     :      6.35s CPU      6.89s WALL (       1 calls)
     electrons    :    227.96s CPU    251.95s WALL (       1 calls)
     forces       :      1.07s CPU      1.09s WALL (       1 calls)
     stress       :      2.89s CPU      3.04s WALL (       1 calls)

     Called by init_run:
     wfcinit      :      4.25s CPU      4.42s WALL (       1 calls)
     potinit      :      1.35s CPU      1.54s WALL (       1 calls)

     Called by electrons:
     c_bands      :    172.17s CPU    189.22s WALL (      20 calls)
     sum_band     :     29.23s CPU     32.25s WALL (      20 calls)
     v_of_rho     :      1.47s CPU      1.69s WALL (      21 calls)
     newd         :      1.99s CPU      2.40s WALL (      21 calls)
     mix_rho      :      0.27s CPU      0.44s WALL (      20 calls)

     Called by c_bands:
     init_us_2    :      2.46s CPU      2.95s WALL (    3612 calls)
     cegterg      :    165.15s CPU    180.70s WALL (    1680 calls)

     Called by *egterg:
     h_psi        :    132.03s CPU    151.48s WALL (    5640 calls)
     s_psi        :      6.14s CPU      4.56s WALL (    5640 calls)
     g_psi        :      0.70s CPU      0.81s WALL (    3876 calls)
     cdiaghg      :      6.18s CPU      7.25s WALL (    5556 calls)

     Called by h_psi:
     add_vuspsi   :      6.55s CPU      4.90s WALL (    5640 calls)

     General routines
     calbec       :      9.32s CPU      6.35s WALL (    7488 calls)
     fft          :      0.91s CPU      1.06s WALL (     685 calls)
     ffts         :      0.07s CPU      0.08s WALL (      82 calls)
     fftw         :    126.82s CPU    150.49s WALL (  200336 calls)
     interpolate  :      0.20s CPU      0.24s WALL (      82 calls)
     davcio       :      0.00s CPU      0.05s WALL (      84 calls)


     PAW routines
     PAW_pot      :     24.09s CPU     27.30s WALL (      21 calls)
     PAW_symme    :      0.03s CPU      0.04s WALL (      41 calls)

     PWSCF        :  3m58.88s CPU     4m24.06s WALL


   This run was terminated on:  23: 0:22  11May2015            

=------------------------------------------------------------------------------=
   JOB DONE.
=------------------------------------------------------------------------------=
