
     Program PWSCF v.5.1.2 starts on 12May2015 at  8:16:40 

     This program is part of the open-source Quantum ESPRESSO suite
     for quantum simulation of materials; please cite
         "P. Giannozzi et al., J. Phys.:Condens. Matter 21 395502 (2009);
          URL http://www.quantum-espresso.org", 
     in publications or presentations arising from this work. More details at
     http://www.quantum-espresso.org/quote

     Serial version
     Reading input from Fe_HCP_5.46_173_11_6.pw.in

     Current dimensions of program PWSCF are:
     Max number of different atomic species (ntypx) = 10
     Max number of k-points (npk) =  40000
     Max angular momentum in pseudopotentials (lmaxx) =  3
               file Fe.pbe-spn-kjpaw_psl.0.2.1.UPF: wavefunction(s)  3D renormalized

     G-vector sticks info
     --------------------
     sticks:   dense  smooth     PW     G-vecs:    dense   smooth      PW
     Sum         511     421    121                16325    11755    2027

     Generating pointlists ...
     new r_m :   0.4125 (alat units)  2.2523 (a.u.) for type    1


     bravais-lattice index     =            4
     lattice parameter (alat)  =       5.4600  a.u.
     unit-cell volume          =     243.8679 (a.u.)^3
     number of atoms/cell      =            2
     number of atomic types    =            1
     number of electrons       =        32.00
     number of Kohn-Sham states=           20
     kinetic-energy cutoff     =      50.0000  Ry
     charge density cutoff     =     250.0000  Ry
     convergence threshold     =      1.0E-08
     mixing beta               =       0.7000
     number of iterations used =            8  plain     mixing
     Exchange-correlation      =  SLA  PW   PBX  PBC ( 1  4  3  4 0 0)

     celldm(1)=   5.460000  celldm(2)=   0.000000  celldm(3)=   1.730000
     celldm(4)=   0.000000  celldm(5)=   0.000000  celldm(6)=   0.000000

     crystal axes: (cart. coord. in units of alat)
               a(1) = (   1.000000   0.000000   0.000000 )  
               a(2) = (  -0.500000   0.866025   0.000000 )  
               a(3) = (   0.000000   0.000000   1.730000 )  

     reciprocal axes: (cart. coord. in units 2 pi/alat)
               b(1) = (  1.000000  0.577350 -0.000000 )  
               b(2) = (  0.000000  1.154701  0.000000 )  
               b(3) = (  0.000000 -0.000000  0.578035 )  


     PseudoPot. # 1 for Fe read from file:
     ./Fe.pbe-spn-kjpaw_psl.0.2.1.UPF
     MD5 check sum: a0a08122d52b112de96d1da1d7dd020f
     Pseudo is Projector augmented-wave + core cor, Zval = 16.0
     Generated using "atomic" code by A. Dal Corso  v.5.0.2 svn rev. 9415
     Shape of augmentation charge: PSQ
     Using radial grid of 1191 points,  6 beta functions with: 
                l(1) =   0
                l(2) =   0
                l(3) =   1
                l(4) =   1
                l(5) =   2
                l(6) =   2
     Q(r) pseudized with 0 coefficients 


     atomic species   valence    mass     pseudopotential
        Fe            16.00    55.85000     Fe( 1.00)

     Starting magnetic structure 
     atomic species   magnetization
        Fe           0.700

     24 Sym. Ops., with inversion, found (12 have fractional translation)



   Cartesian axes

     site n.     atom                  positions (alat units)
         1           Fe  tau(   1) = (  -0.0000000   0.5773503   0.4325000  )
         2           Fe  tau(   2) = (   0.5000000   0.2886751   1.2975000  )

     number of k points=   128  Marzari-Vanderbilt smearing, width (Ry)=  0.0250

     Number of k-points >= 100: set verbosity='high' to print them.

     Dense  grid:    16325 G-vectors     FFT dimensions: (  27,  27,  48)

     Smooth grid:    11755 G-vectors     FFT dimensions: (  25,  25,  45)

     Largest allocated arrays     est. size (Mb)     dimensions
        Kohn-Sham Wavefunctions         0.45 Mb     (    1485,   20)
        NL pseudopotentials             0.82 Mb     (    1485,   36)
        Each V/rho on FFT grid          1.07 Mb     (   34992,   2)
        Each G-vector array             0.12 Mb     (   16325)
        G-vector shells                 0.01 Mb     (     849)
     Largest temporary arrays     est. size (Mb)     dimensions
        Auxiliary wavefunctions         1.81 Mb     (    1485,   80)
        Each subspace H/S matrix        0.10 Mb     (      80,   80)
        Each <psi_i|beta_j> matrix      0.01 Mb     (      36,   20)
        Arrays for rho mixing           4.27 Mb     (   34992,    8)

     Check: negative/imaginary core charge=   -0.000312    0.000000

     Initial potential from superposition of free atoms

     starting charge   31.99912, renormalised to   32.00000
     Starting wfc are   26 randomized atomic wfcs

     total cpu time spent up to now is        7.3 secs

     Self-consistent Calculation

     iteration #  1     ecut=    50.00 Ry     beta=0.70
     Davidson diagonalization with overlap
     ethr =  1.00E-02,  avg # of iterations =  1.9

     negative rho (up, down):  0.000E+00 1.117E-03

     Magnetic moment per site:
     atom:    1    charge:   14.6210    magn:    5.9526    constr:    0.0000
     atom:    2    charge:   14.6210    magn:    5.9526    constr:    0.0000

     total cpu time spent up to now is       19.5 secs

     total energy              =    -657.96033611 Ry
     Harris-Foulkes estimate   =    -656.24784367 Ry
     estimated scf accuracy    <       2.83323607 Ry

     total magnetization       =     8.00 Bohr mag/cell
     absolute magnetization    =     8.29 Bohr mag/cell

     iteration #  2     ecut=    50.00 Ry     beta=0.70
     Davidson diagonalization with overlap
     ethr =  8.85E-03,  avg # of iterations =  1.6

     negative rho (up, down):  0.000E+00 1.085E-03

     Magnetic moment per site:
     atom:    1    charge:   14.8472    magn:    4.0494    constr:    0.0000
     atom:    2    charge:   14.8472    magn:    4.0494    constr:    0.0000

     total cpu time spent up to now is       30.6 secs

     total energy              =    -658.12238571 Ry
     Harris-Foulkes estimate   =    -658.17444326 Ry
     estimated scf accuracy    <       0.85266447 Ry

     total magnetization       =     6.57 Bohr mag/cell
     absolute magnetization    =     6.87 Bohr mag/cell

     iteration #  3     ecut=    50.00 Ry     beta=0.70
     Davidson diagonalization with overlap
     ethr =  2.66E-03,  avg # of iterations =  3.0

     negative rho (up, down):  0.000E+00 1.281E-03

     Magnetic moment per site:
     atom:    1    charge:   14.7323    magn:    3.0684    constr:    0.0000
     atom:    2    charge:   14.7323    magn:    3.0684    constr:    0.0000

     total cpu time spent up to now is       44.3 secs

     total energy              =    -658.15883964 Ry
     Harris-Foulkes estimate   =    -658.64666289 Ry
     estimated scf accuracy    <       1.37028354 Ry

     total magnetization       =     6.76 Bohr mag/cell
     absolute magnetization    =     7.03 Bohr mag/cell

     iteration #  4     ecut=    50.00 Ry     beta=0.70
     Davidson diagonalization with overlap
     ethr =  2.66E-03,  avg # of iterations =  2.7

     negative rho (up, down):  0.000E+00 1.075E-03

     Magnetic moment per site:
     atom:    1    charge:   14.7879    magn:    3.0477    constr:    0.0000
     atom:    2    charge:   14.7879    magn:    3.0477    constr:    0.0000

     total cpu time spent up to now is       57.5 secs

     total energy              =    -658.39385025 Ry
     Harris-Foulkes estimate   =    -658.39391080 Ry
     estimated scf accuracy    <       0.00633427 Ry

     total magnetization       =     5.94 Bohr mag/cell
     absolute magnetization    =     6.32 Bohr mag/cell

     iteration #  5     ecut=    50.00 Ry     beta=0.70
     Davidson diagonalization with overlap
     ethr =  1.98E-05,  avg # of iterations =  3.3

     negative rho (up, down):  0.000E+00 1.082E-03

     Magnetic moment per site:
     atom:    1    charge:   14.7798    magn:    3.0531    constr:    0.0000
     atom:    2    charge:   14.7798    magn:    3.0531    constr:    0.0000

     total cpu time spent up to now is       75.2 secs

     total energy              =    -658.40057322 Ry
     Harris-Foulkes estimate   =    -658.39960978 Ry
     estimated scf accuracy    <       0.00077008 Ry

     total magnetization       =     5.96 Bohr mag/cell
     absolute magnetization    =     6.31 Bohr mag/cell

     iteration #  6     ecut=    50.00 Ry     beta=0.70
     Davidson diagonalization with overlap
     ethr =  2.41E-06,  avg # of iterations =  2.1

     negative rho (up, down):  0.000E+00 1.066E-03

     Magnetic moment per site:
     atom:    1    charge:   14.7801    magn:    3.0495    constr:    0.0000
     atom:    2    charge:   14.7801    magn:    3.0495    constr:    0.0000

     total cpu time spent up to now is       86.9 secs

     total energy              =    -658.40129751 Ry
     Harris-Foulkes estimate   =    -658.40080739 Ry
     estimated scf accuracy    <       0.00057569 Ry

     total magnetization       =     5.96 Bohr mag/cell
     absolute magnetization    =     6.30 Bohr mag/cell

     iteration #  7     ecut=    50.00 Ry     beta=0.70
     Davidson diagonalization with overlap
     ethr =  1.80E-06,  avg # of iterations =  2.1

     negative rho (up, down):  0.000E+00 1.059E-03

     Magnetic moment per site:
     atom:    1    charge:   14.7820    magn:    3.0444    constr:    0.0000
     atom:    2    charge:   14.7820    magn:    3.0444    constr:    0.0000

     total cpu time spent up to now is       98.6 secs

     total energy              =    -658.40178147 Ry
     Harris-Foulkes estimate   =    -658.40145617 Ry
     estimated scf accuracy    <       0.00031311 Ry

     total magnetization       =     5.95 Bohr mag/cell
     absolute magnetization    =     6.28 Bohr mag/cell

     iteration #  8     ecut=    50.00 Ry     beta=0.70
     Davidson diagonalization with overlap
     ethr =  9.78E-07,  avg # of iterations =  2.4

     negative rho (up, down):  0.000E+00 1.037E-03

     Magnetic moment per site:
     atom:    1    charge:   14.7821    magn:    3.0332    constr:    0.0000
     atom:    2    charge:   14.7821    magn:    3.0332    constr:    0.0000

     total cpu time spent up to now is      111.2 secs

     total energy              =    -658.40144509 Ry
     Harris-Foulkes estimate   =    -658.40191320 Ry
     estimated scf accuracy    <       0.00019928 Ry

     total magnetization       =     5.94 Bohr mag/cell
     absolute magnetization    =     6.26 Bohr mag/cell

     iteration #  9     ecut=    50.00 Ry     beta=0.70
     Davidson diagonalization with overlap
     ethr =  6.23E-07,  avg # of iterations =  3.1

     negative rho (up, down):  0.000E+00 1.038E-03

     Magnetic moment per site:
     atom:    1    charge:   14.7818    magn:    3.0342    constr:    0.0000
     atom:    2    charge:   14.7818    magn:    3.0342    constr:    0.0000

     total cpu time spent up to now is      128.1 secs

     total energy              =    -658.40206975 Ry
     Harris-Foulkes estimate   =    -658.40169111 Ry
     estimated scf accuracy    <       0.00007164 Ry

     total magnetization       =     5.94 Bohr mag/cell
     absolute magnetization    =     6.24 Bohr mag/cell

     iteration # 10     ecut=    50.00 Ry     beta=0.70
     Davidson diagonalization with overlap
     ethr =  2.24E-07,  avg # of iterations =  2.4

     negative rho (up, down):  0.000E+00 1.035E-03

     Magnetic moment per site:
     atom:    1    charge:   14.7817    magn:    3.0331    constr:    0.0000
     atom:    2    charge:   14.7817    magn:    3.0331    constr:    0.0000

     total cpu time spent up to now is      140.0 secs

     total energy              =    -658.40213983 Ry
     Harris-Foulkes estimate   =    -658.40207933 Ry
     estimated scf accuracy    <       0.00001860 Ry

     total magnetization       =     5.94 Bohr mag/cell
     absolute magnetization    =     6.24 Bohr mag/cell

     iteration # 11     ecut=    50.00 Ry     beta=0.70
     Davidson diagonalization with overlap
     ethr =  5.81E-08,  avg # of iterations =  2.4

     negative rho (up, down):  0.000E+00 1.038E-03

     Magnetic moment per site:
     atom:    1    charge:   14.7815    magn:    3.0345    constr:    0.0000
     atom:    2    charge:   14.7815    magn:    3.0345    constr:    0.0000

     total cpu time spent up to now is      153.5 secs

     total energy              =    -658.40218705 Ry
     Harris-Foulkes estimate   =    -658.40214356 Ry
     estimated scf accuracy    <       0.00001607 Ry

     total magnetization       =     5.93 Bohr mag/cell
     absolute magnetization    =     6.24 Bohr mag/cell

     iteration # 12     ecut=    50.00 Ry     beta=0.70
     Davidson diagonalization with overlap
     ethr =  5.02E-08,  avg # of iterations =  2.1

     negative rho (up, down):  0.000E+00 1.038E-03

     Magnetic moment per site:
     atom:    1    charge:   14.7815    magn:    3.0345    constr:    0.0000
     atom:    2    charge:   14.7815    magn:    3.0345    constr:    0.0000

     total cpu time spent up to now is      167.2 secs

     total energy              =    -658.40219026 Ry
     Harris-Foulkes estimate   =    -658.40218997 Ry
     estimated scf accuracy    <       0.00000051 Ry

     total magnetization       =     5.93 Bohr mag/cell
     absolute magnetization    =     6.24 Bohr mag/cell

     iteration # 13     ecut=    50.00 Ry     beta=0.70
     Davidson diagonalization with overlap
     ethr =  1.61E-09,  avg # of iterations =  3.2

     negative rho (up, down):  0.000E+00 1.038E-03

     Magnetic moment per site:
     atom:    1    charge:   14.7816    magn:    3.0344    constr:    0.0000
     atom:    2    charge:   14.7816    magn:    3.0344    constr:    0.0000

     total cpu time spent up to now is      180.7 secs

     total energy              =    -658.40219050 Ry
     Harris-Foulkes estimate   =    -658.40219043 Ry
     estimated scf accuracy    <       0.00000041 Ry

     total magnetization       =     5.93 Bohr mag/cell
     absolute magnetization    =     6.24 Bohr mag/cell

     iteration # 14     ecut=    50.00 Ry     beta=0.70
     Davidson diagonalization with overlap
     ethr =  1.27E-09,  avg # of iterations =  1.5

     negative rho (up, down):  0.000E+00 1.038E-03

     Magnetic moment per site:
     atom:    1    charge:   14.7816    magn:    3.0342    constr:    0.0000
     atom:    2    charge:   14.7816    magn:    3.0342    constr:    0.0000

     total cpu time spent up to now is      191.7 secs

     total energy              =    -658.40219061 Ry
     Harris-Foulkes estimate   =    -658.40219053 Ry
     estimated scf accuracy    <       0.00000023 Ry

     total magnetization       =     5.93 Bohr mag/cell
     absolute magnetization    =     6.24 Bohr mag/cell

     iteration # 15     ecut=    50.00 Ry     beta=0.70
     Davidson diagonalization with overlap
     ethr =  7.07E-10,  avg # of iterations =  1.8

     negative rho (up, down):  0.000E+00 1.038E-03

     Magnetic moment per site:
     atom:    1    charge:   14.7816    magn:    3.0340    constr:    0.0000
     atom:    2    charge:   14.7816    magn:    3.0340    constr:    0.0000

     total cpu time spent up to now is      203.0 secs

     total energy              =    -658.40219067 Ry
     Harris-Foulkes estimate   =    -658.40219064 Ry
     estimated scf accuracy    <       0.00000010 Ry

     total magnetization       =     5.93 Bohr mag/cell
     absolute magnetization    =     6.24 Bohr mag/cell

     iteration # 16     ecut=    50.00 Ry     beta=0.70
     Davidson diagonalization with overlap
     ethr =  3.11E-10,  avg # of iterations =  2.2

     negative rho (up, down):  0.000E+00 1.038E-03

     Magnetic moment per site:
     atom:    1    charge:   14.7817    magn:    3.0339    constr:    0.0000
     atom:    2    charge:   14.7817    magn:    3.0339    constr:    0.0000

     total cpu time spent up to now is      215.0 secs

     End of self-consistent calculation

     Number of k-points >= 100: set verbosity='high' to print the bands.

     the Fermi energy is    10.5790 ev

!    total energy              =    -658.40219071 Ry
     Harris-Foulkes estimate   =    -658.40219070 Ry
     estimated scf accuracy    <          7.8E-09 Ry

     total all-electron energy =     -5090.995262 Ry

     The total energy is the sum of the following terms:

     one-electron contribution =    -300.98214497 Ry
     hartree contribution      =     162.32730683 Ry
     xc contribution           =     -69.40450609 Ry
     ewald contribution        =    -298.06557968 Ry
     one-center paw contrib.   =    -152.27767012 Ry
     smearing contrib. (-TS)   =       0.00040333 Ry

     total magnetization       =     5.93 Bohr mag/cell
     absolute magnetization    =     6.24 Bohr mag/cell

     convergence has been achieved in  16 iterations

     Forces acting on atoms (Ry/au):


     negative rho (up, down):  0.000E+00 1.038E-03
     atom    1 type  1   force =    -0.00000000   -0.00000000    0.00000000
     atom    2 type  1   force =    -0.00000000   -0.00000000    0.00000000

     Total force =     0.000000     Total SCF correction =     0.000000


     entering subroutine stress ...


     negative rho (up, down):  0.000E+00 1.038E-03
          total   stress  (Ry/bohr**3)                   (kbar)     P= -289.98
  -0.00206037   0.00000000  -0.00000000       -303.09      0.00     -0.00
   0.00000000  -0.00206037  -0.00000000          0.00   -303.09     -0.00
   0.00000000   0.00000000  -0.00179298          0.00      0.00   -263.76


     Writing output data file Fe_hcp.save

     init_run     :      6.99s CPU      6.91s WALL (       1 calls)
     electrons    :    217.27s CPU    207.74s WALL (       1 calls)
     forces       :      1.18s CPU      0.92s WALL (       1 calls)
     stress       :      3.30s CPU      3.32s WALL (       1 calls)

     Called by init_run:
     wfcinit      :      5.28s CPU      5.11s WALL (       1 calls)
     potinit      :      1.03s CPU      1.09s WALL (       1 calls)

     Called by electrons:
     c_bands      :    170.19s CPU    160.05s WALL (      16 calls)
     sum_band     :     28.89s CPU     28.56s WALL (      16 calls)
     v_of_rho     :      1.02s CPU      1.07s WALL (      17 calls)
     newd         :      1.29s CPU      1.38s WALL (      17 calls)
     mix_rho      :      0.17s CPU      0.22s WALL (      16 calls)

     Called by c_bands:
     init_us_2    :      2.65s CPU      2.74s WALL (    4480 calls)
     cegterg      :    162.91s CPU    152.50s WALL (    2048 calls)

     Called by *egterg:
     h_psi        :    131.30s CPU    129.26s WALL (    7024 calls)
     s_psi        :      6.09s CPU      3.59s WALL (    7024 calls)
     g_psi        :      0.81s CPU      0.84s WALL (    4848 calls)
     cdiaghg      :      6.34s CPU      6.51s WALL (    6896 calls)

     Called by h_psi:
     add_vuspsi   :      7.03s CPU      4.18s WALL (    7024 calls)

     General routines
     calbec       :      9.71s CPU      5.57s WALL (    9328 calls)
     fft          :      0.58s CPU      0.60s WALL (     561 calls)
     ffts         :      0.05s CPU      0.05s WALL (      66 calls)
     fftw         :    127.19s CPU    131.04s WALL (  242402 calls)
     interpolate  :      0.13s CPU      0.14s WALL (      66 calls)
     davcio       :      0.00s CPU      0.11s WALL (     128 calls)


     PAW routines
     PAW_pot      :     16.68s CPU     17.47s WALL (      17 calls)
     PAW_symme    :      0.02s CPU      0.02s WALL (      33 calls)

     PWSCF        :  3m49.32s CPU     3m39.72s WALL


   This run was terminated on:   8:20:20  12May2015            

=------------------------------------------------------------------------------=
   JOB DONE.
=------------------------------------------------------------------------------=
