
     Program PWSCF v.5.1.2 starts on 11May2015 at 18:15:21 

     This program is part of the open-source Quantum ESPRESSO suite
     for quantum simulation of materials; please cite
         "P. Giannozzi et al., J. Phys.:Condens. Matter 21 395502 (2009);
          URL http://www.quantum-espresso.org", 
     in publications or presentations arising from this work. More details at
     http://www.quantum-espresso.org/quote

     Serial version
     Reading input from Fe_HCP_5.42_172_6_3.pw.in

     Current dimensions of program PWSCF are:
     Max number of different atomic species (ntypx) = 10
     Max number of k-points (npk) =  40000
     Max angular momentum in pseudopotentials (lmaxx) =  3
               file Fe.pbe-spn-kjpaw_psl.0.2.1.UPF: wavefunction(s)  3D renormalized

     G-vector sticks info
     --------------------
     sticks:   dense  smooth     PW     G-vecs:    dense   smooth      PW
     Sum         511     409    121                15845    11309    1967

     Generating pointlists ...
     new r_m :   0.4125 (alat units)  2.2358 (a.u.) for type    1


     bravais-lattice index     =            4
     lattice parameter (alat)  =       5.4200  a.u.
     unit-cell volume          =     237.1685 (a.u.)^3
     number of atoms/cell      =            2
     number of atomic types    =            1
     number of electrons       =        32.00
     number of Kohn-Sham states=           20
     kinetic-energy cutoff     =      50.0000  Ry
     charge density cutoff     =     250.0000  Ry
     convergence threshold     =      1.0E-08
     mixing beta               =       0.7000
     number of iterations used =            8  plain     mixing
     Exchange-correlation      =  SLA  PW   PBX  PBC ( 1  4  3  4 0 0)

     celldm(1)=   5.420000  celldm(2)=   0.000000  celldm(3)=   1.720000
     celldm(4)=   0.000000  celldm(5)=   0.000000  celldm(6)=   0.000000

     crystal axes: (cart. coord. in units of alat)
               a(1) = (   1.000000   0.000000   0.000000 )  
               a(2) = (  -0.500000   0.866025   0.000000 )  
               a(3) = (   0.000000   0.000000   1.720000 )  

     reciprocal axes: (cart. coord. in units 2 pi/alat)
               b(1) = (  1.000000  0.577350 -0.000000 )  
               b(2) = (  0.000000  1.154701  0.000000 )  
               b(3) = (  0.000000 -0.000000  0.581395 )  


     PseudoPot. # 1 for Fe read from file:
     ./Fe.pbe-spn-kjpaw_psl.0.2.1.UPF
     MD5 check sum: a0a08122d52b112de96d1da1d7dd020f
     Pseudo is Projector augmented-wave + core cor, Zval = 16.0
     Generated using "atomic" code by A. Dal Corso  v.5.0.2 svn rev. 9415
     Shape of augmentation charge: PSQ
     Using radial grid of 1191 points,  6 beta functions with: 
                l(1) =   0
                l(2) =   0
                l(3) =   1
                l(4) =   1
                l(5) =   2
                l(6) =   2
     Q(r) pseudized with 0 coefficients 


     atomic species   valence    mass     pseudopotential
        Fe            16.00    55.85000     Fe( 1.00)

     Starting magnetic structure 
     atomic species   magnetization
        Fe           0.700

     24 Sym. Ops., with inversion, found (12 have fractional translation)



   Cartesian axes

     site n.     atom                  positions (alat units)
         1           Fe  tau(   1) = (  -0.0000000   0.5773503   0.4300000  )
         2           Fe  tau(   2) = (   0.5000000   0.2886751   1.2900000  )

     number of k points=    28  Marzari-Vanderbilt smearing, width (Ry)=  0.0250
                       cart. coord. in units 2pi/alat
        k(    1) = (   0.0000000   0.0000000   0.0000000), wk =   0.0092593
        k(    2) = (   0.0000000   0.0000000   0.1937984), wk =   0.0185185
        k(    3) = (   0.0000000   0.1924501   0.0000000), wk =   0.0555556
        k(    4) = (   0.0000000   0.1924501   0.1937984), wk =   0.1111111
        k(    5) = (   0.0000000   0.3849002   0.0000000), wk =   0.0555556
        k(    6) = (   0.0000000   0.3849002   0.1937984), wk =   0.1111111
        k(    7) = (   0.0000000  -0.5773503   0.0000000), wk =   0.0277778
        k(    8) = (   0.0000000  -0.5773503   0.1937984), wk =   0.0555556
        k(    9) = (   0.1666667   0.2886751   0.0000000), wk =   0.0555556
        k(   10) = (   0.1666667   0.2886751   0.1937984), wk =   0.1111111
        k(   11) = (   0.1666667   0.4811252   0.0000000), wk =   0.1111111
        k(   12) = (   0.1666667   0.4811252   0.1937984), wk =   0.2222222
        k(   13) = (   0.3333333   0.5773503   0.0000000), wk =   0.0185185
        k(   14) = (   0.3333333   0.5773503   0.1937984), wk =   0.0370370
        k(   15) = (   0.0000000   0.0000000   0.0000000), wk =   0.0092593
        k(   16) = (   0.0000000   0.0000000   0.1937984), wk =   0.0185185
        k(   17) = (   0.0000000   0.1924501   0.0000000), wk =   0.0555556
        k(   18) = (   0.0000000   0.1924501   0.1937984), wk =   0.1111111
        k(   19) = (   0.0000000   0.3849002   0.0000000), wk =   0.0555556
        k(   20) = (   0.0000000   0.3849002   0.1937984), wk =   0.1111111
        k(   21) = (   0.0000000  -0.5773503   0.0000000), wk =   0.0277778
        k(   22) = (   0.0000000  -0.5773503   0.1937984), wk =   0.0555556
        k(   23) = (   0.1666667   0.2886751   0.0000000), wk =   0.0555556
        k(   24) = (   0.1666667   0.2886751   0.1937984), wk =   0.1111111
        k(   25) = (   0.1666667   0.4811252   0.0000000), wk =   0.1111111
        k(   26) = (   0.1666667   0.4811252   0.1937984), wk =   0.2222222
        k(   27) = (   0.3333333   0.5773503   0.0000000), wk =   0.0185185
        k(   28) = (   0.3333333   0.5773503   0.1937984), wk =   0.0370370

     Dense  grid:    15845 G-vectors     FFT dimensions: (  27,  27,  48)

     Smooth grid:    11309 G-vectors     FFT dimensions: (  25,  25,  45)

     Largest allocated arrays     est. size (Mb)     dimensions
        Kohn-Sham Wavefunctions         0.44 Mb     (    1434,   20)
        NL pseudopotentials             0.79 Mb     (    1434,   36)
        Each V/rho on FFT grid          1.07 Mb     (   34992,   2)
        Each G-vector array             0.12 Mb     (   15845)
        G-vector shells                 0.01 Mb     (     829)
     Largest temporary arrays     est. size (Mb)     dimensions
        Auxiliary wavefunctions         1.75 Mb     (    1434,   80)
        Each subspace H/S matrix        0.10 Mb     (      80,   80)
        Each <psi_i|beta_j> matrix      0.01 Mb     (      36,   20)
        Arrays for rho mixing           4.27 Mb     (   34992,    8)

     Check: negative/imaginary core charge=   -0.000319    0.000000

     Initial potential from superposition of free atoms

     starting charge   31.99912, renormalised to   32.00000
     Starting wfc are   26 randomized atomic wfcs

     total cpu time spent up to now is        3.3 secs

     Self-consistent Calculation

     iteration #  1     ecut=    50.00 Ry     beta=0.70
     Davidson diagonalization with overlap
     ethr =  1.00E-02,  avg # of iterations =  2.0

     negative rho (up, down):  0.000E+00 1.069E-03

     Magnetic moment per site:
     atom:    1    charge:   14.6129    magn:    5.9428    constr:    0.0000
     atom:    2    charge:   14.6129    magn:    5.9428    constr:    0.0000

     total cpu time spent up to now is        6.9 secs

     total energy              =    -657.96054486 Ry
     Harris-Foulkes estimate   =    -656.24240994 Ry
     estimated scf accuracy    <       2.84129286 Ry

     total magnetization       =     8.00 Bohr mag/cell
     absolute magnetization    =     8.25 Bohr mag/cell

     iteration #  2     ecut=    50.00 Ry     beta=0.70
     Davidson diagonalization with overlap
     ethr =  8.88E-03,  avg # of iterations =  1.7

     negative rho (up, down):  0.000E+00 1.050E-03

     Magnetic moment per site:
     atom:    1    charge:   14.8369    magn:    4.0298    constr:    0.0000
     atom:    2    charge:   14.8369    magn:    4.0298    constr:    0.0000

     total cpu time spent up to now is       10.3 secs

     total energy              =    -658.14288428 Ry
     Harris-Foulkes estimate   =    -658.18432653 Ry
     estimated scf accuracy    <       0.83439668 Ry

     total magnetization       =     6.58 Bohr mag/cell
     absolute magnetization    =     6.87 Bohr mag/cell

     iteration #  3     ecut=    50.00 Ry     beta=0.70
     Davidson diagonalization with overlap
     ethr =  2.61E-03,  avg # of iterations =  3.2

     negative rho (up, down):  0.000E+00 1.248E-03

     Magnetic moment per site:
     atom:    1    charge:   14.7231    magn:    3.0981    constr:    0.0000
     atom:    2    charge:   14.7231    magn:    3.0981    constr:    0.0000

     total cpu time spent up to now is       14.4 secs

     total energy              =    -658.17888685 Ry
     Harris-Foulkes estimate   =    -658.64990621 Ry
     estimated scf accuracy    <       1.29729358 Ry

     total magnetization       =     6.85 Bohr mag/cell
     absolute magnetization    =     7.09 Bohr mag/cell

     iteration #  4     ecut=    50.00 Ry     beta=0.70
     Davidson diagonalization with overlap
     ethr =  2.61E-03,  avg # of iterations =  2.8

     negative rho (up, down):  0.000E+00 9.851E-04

     Magnetic moment per site:
     atom:    1    charge:   14.7876    magn:    2.9369    constr:    0.0000
     atom:    2    charge:   14.7876    magn:    2.9369    constr:    0.0000

     total cpu time spent up to now is       18.1 secs

     total energy              =    -658.40017336 Ry
     Harris-Foulkes estimate   =    -658.40031521 Ry
     estimated scf accuracy    <       0.00719163 Ry

     total magnetization       =     5.82 Bohr mag/cell
     absolute magnetization    =     6.24 Bohr mag/cell

     iteration #  5     ecut=    50.00 Ry     beta=0.70
     Davidson diagonalization with overlap
     ethr =  2.25E-05,  avg # of iterations =  3.3

     negative rho (up, down):  0.000E+00 1.002E-03

     Magnetic moment per site:
     atom:    1    charge:   14.7711    magn:    2.9569    constr:    0.0000
     atom:    2    charge:   14.7711    magn:    2.9569    constr:    0.0000

     total cpu time spent up to now is       22.7 secs

     total energy              =    -658.40828070 Ry
     Harris-Foulkes estimate   =    -658.40707341 Ry
     estimated scf accuracy    <       0.00085848 Ry

     total magnetization       =     5.68 Bohr mag/cell
     absolute magnetization    =     6.12 Bohr mag/cell

     iteration #  6     ecut=    50.00 Ry     beta=0.70
     Davidson diagonalization with overlap
     ethr =  2.68E-06,  avg # of iterations =  2.0

     negative rho (up, down):  0.000E+00 1.021E-03

     Magnetic moment per site:
     atom:    1    charge:   14.7705    magn:    2.9717    constr:    0.0000
     atom:    2    charge:   14.7705    magn:    2.9717    constr:    0.0000

     total cpu time spent up to now is       26.1 secs

     total energy              =    -658.40732372 Ry
     Harris-Foulkes estimate   =    -658.40859689 Ry
     estimated scf accuracy    <       0.00079687 Ry

     total magnetization       =     5.68 Bohr mag/cell
     absolute magnetization    =     6.10 Bohr mag/cell

     iteration #  7     ecut=    50.00 Ry     beta=0.70
     Davidson diagonalization with overlap
     ethr =  2.49E-06,  avg # of iterations =  1.5

     negative rho (up, down):  0.000E+00 9.345E-04

     Magnetic moment per site:
     atom:    1    charge:   14.7733    magn:    2.9163    constr:    0.0000
     atom:    2    charge:   14.7733    magn:    2.9163    constr:    0.0000

     total cpu time spent up to now is       29.4 secs

     total energy              =    -658.40914968 Ry
     Harris-Foulkes estimate   =    -658.40736286 Ry
     estimated scf accuracy    <       0.00199991 Ry

     total magnetization       =     5.69 Bohr mag/cell
     absolute magnetization    =     6.11 Bohr mag/cell

     iteration #  8     ecut=    50.00 Ry     beta=0.70
     Davidson diagonalization with overlap
     ethr =  2.49E-06,  avg # of iterations =  2.8

     negative rho (up, down):  0.000E+00 9.345E-04

     Magnetic moment per site:
     atom:    1    charge:   14.7744    magn:    2.9146    constr:    0.0000
     atom:    2    charge:   14.7744    magn:    2.9146    constr:    0.0000

     total cpu time spent up to now is       33.4 secs

     total energy              =    -658.41018481 Ry
     Harris-Foulkes estimate   =    -658.40995652 Ry
     estimated scf accuracy    <       0.00017041 Ry

     total magnetization       =     5.62 Bohr mag/cell
     absolute magnetization    =     6.04 Bohr mag/cell

     iteration #  9     ecut=    50.00 Ry     beta=0.70
     Davidson diagonalization with overlap
     ethr =  5.33E-07,  avg # of iterations =  2.2

     negative rho (up, down):  0.000E+00 9.125E-04

     Magnetic moment per site:
     atom:    1    charge:   14.7775    magn:    2.8833    constr:    0.0000
     atom:    2    charge:   14.7775    magn:    2.8833    constr:    0.0000

     total cpu time spent up to now is       36.7 secs

     total energy              =    -658.41027110 Ry
     Harris-Foulkes estimate   =    -658.41022070 Ry
     estimated scf accuracy    <       0.00030485 Ry

     total magnetization       =     5.61 Bohr mag/cell
     absolute magnetization    =     6.03 Bohr mag/cell

     iteration # 10     ecut=    50.00 Ry     beta=0.70
     Davidson diagonalization with overlap
     ethr =  5.33E-07,  avg # of iterations =  3.0

     negative rho (up, down):  0.000E+00 8.969E-04

     Magnetic moment per site:
     atom:    1    charge:   14.7785    magn:    2.8653    constr:    0.0000
     atom:    2    charge:   14.7785    magn:    2.8653    constr:    0.0000

     total cpu time spent up to now is       40.7 secs

     total energy              =    -658.41028148 Ry
     Harris-Foulkes estimate   =    -658.41046132 Ry
     estimated scf accuracy    <       0.00000489 Ry

     total magnetization       =     5.58 Bohr mag/cell
     absolute magnetization    =     5.99 Bohr mag/cell

     iteration # 11     ecut=    50.00 Ry     beta=0.70
     Davidson diagonalization with overlap
     ethr =  1.53E-08,  avg # of iterations =  4.5

     negative rho (up, down):  0.000E+00 9.007E-04

     Magnetic moment per site:
     atom:    1    charge:   14.7780    magn:    2.8715    constr:    0.0000
     atom:    2    charge:   14.7780    magn:    2.8715    constr:    0.0000

     total cpu time spent up to now is       45.6 secs

     total energy              =    -658.41063410 Ry
     Harris-Foulkes estimate   =    -658.41037416 Ry
     estimated scf accuracy    <       0.00006645 Ry

     total magnetization       =     5.56 Bohr mag/cell
     absolute magnetization    =     5.96 Bohr mag/cell

     iteration # 12     ecut=    50.00 Ry     beta=0.70
     Davidson diagonalization with overlap
     ethr =  1.53E-08,  avg # of iterations =  3.3

     negative rho (up, down):  0.000E+00 9.012E-04

     Magnetic moment per site:
     atom:    1    charge:   14.7782    magn:    2.8722    constr:    0.0000
     atom:    2    charge:   14.7782    magn:    2.8722    constr:    0.0000

     total cpu time spent up to now is       49.7 secs

     total energy              =    -658.41066169 Ry
     Harris-Foulkes estimate   =    -658.41063912 Ry
     estimated scf accuracy    <       0.00000334 Ry

     total magnetization       =     5.57 Bohr mag/cell
     absolute magnetization    =     5.96 Bohr mag/cell

     iteration # 13     ecut=    50.00 Ry     beta=0.70
     Davidson diagonalization with overlap
     ethr =  1.04E-08,  avg # of iterations =  2.4

     negative rho (up, down):  0.000E+00 9.003E-04

     Magnetic moment per site:
     atom:    1    charge:   14.7782    magn:    2.8720    constr:    0.0000
     atom:    2    charge:   14.7782    magn:    2.8720    constr:    0.0000

     total cpu time spent up to now is       53.3 secs

     total energy              =    -658.41066521 Ry
     Harris-Foulkes estimate   =    -658.41066258 Ry
     estimated scf accuracy    <       0.00000017 Ry

     total magnetization       =     5.57 Bohr mag/cell
     absolute magnetization    =     5.96 Bohr mag/cell

     iteration # 14     ecut=    50.00 Ry     beta=0.70
     Davidson diagonalization with overlap
     ethr =  5.37E-10,  avg # of iterations =  3.6

     negative rho (up, down):  0.000E+00 9.001E-04

     Magnetic moment per site:
     atom:    1    charge:   14.7781    magn:    2.8723    constr:    0.0000
     atom:    2    charge:   14.7781    magn:    2.8723    constr:    0.0000

     total cpu time spent up to now is       57.6 secs

     total energy              =    -658.41066646 Ry
     Harris-Foulkes estimate   =    -658.41066558 Ry
     estimated scf accuracy    <       0.00000002 Ry

     total magnetization       =     5.57 Bohr mag/cell
     absolute magnetization    =     5.96 Bohr mag/cell

     iteration # 15     ecut=    50.00 Ry     beta=0.70
     Davidson diagonalization with overlap
     ethr =  5.17E-11,  avg # of iterations =  3.6

     negative rho (up, down):  0.000E+00 8.994E-04

     Magnetic moment per site:
     atom:    1    charge:   14.7782    magn:    2.8713    constr:    0.0000
     atom:    2    charge:   14.7782    magn:    2.8713    constr:    0.0000

     total cpu time spent up to now is       61.7 secs

     total energy              =    -658.41066618 Ry
     Harris-Foulkes estimate   =    -658.41066652 Ry
     estimated scf accuracy    <       0.00000006 Ry

     total magnetization       =     5.57 Bohr mag/cell
     absolute magnetization    =     5.96 Bohr mag/cell

     iteration # 16     ecut=    50.00 Ry     beta=0.70
     Davidson diagonalization with overlap
     ethr =  5.17E-11,  avg # of iterations =  4.6

     negative rho (up, down):  0.000E+00 8.997E-04

     Magnetic moment per site:
     atom:    1    charge:   14.7782    magn:    2.8717    constr:    0.0000
     atom:    2    charge:   14.7782    magn:    2.8717    constr:    0.0000

     total cpu time spent up to now is       66.2 secs

     total energy              =    -658.41066673 Ry
     Harris-Foulkes estimate   =    -658.41066636 Ry
     estimated scf accuracy    <       0.00000004 Ry

     total magnetization       =     5.56 Bohr mag/cell
     absolute magnetization    =     5.96 Bohr mag/cell

     iteration # 17     ecut=    50.00 Ry     beta=0.70
     Davidson diagonalization with overlap
     ethr =  5.17E-11,  avg # of iterations =  2.7

     negative rho (up, down):  0.000E+00 8.996E-04

     Magnetic moment per site:
     atom:    1    charge:   14.7782    magn:    2.8717    constr:    0.0000
     atom:    2    charge:   14.7782    magn:    2.8717    constr:    0.0000

     total cpu time spent up to now is       70.2 secs

     total energy              =    -658.41066675 Ry
     Harris-Foulkes estimate   =    -658.41066674 Ry
     estimated scf accuracy    <       0.00000002 Ry

     total magnetization       =     5.56 Bohr mag/cell
     absolute magnetization    =     5.96 Bohr mag/cell

     iteration # 18     ecut=    50.00 Ry     beta=0.70
     Davidson diagonalization with overlap
     ethr =  4.76E-11,  avg # of iterations =  1.8

     negative rho (up, down):  0.000E+00 8.996E-04

     Magnetic moment per site:
     atom:    1    charge:   14.7782    magn:    2.8716    constr:    0.0000
     atom:    2    charge:   14.7782    magn:    2.8716    constr:    0.0000

     total cpu time spent up to now is       73.5 secs

     total energy              =    -658.41066675 Ry
     Harris-Foulkes estimate   =    -658.41066675 Ry
     estimated scf accuracy    <       0.00000001 Ry

     total magnetization       =     5.56 Bohr mag/cell
     absolute magnetization    =     5.96 Bohr mag/cell

     iteration # 19     ecut=    50.00 Ry     beta=0.70
     Davidson diagonalization with overlap
     ethr =  3.38E-11,  avg # of iterations =  1.5

     negative rho (up, down):  0.000E+00 8.995E-04

     Magnetic moment per site:
     atom:    1    charge:   14.7782    magn:    2.8716    constr:    0.0000
     atom:    2    charge:   14.7782    magn:    2.8716    constr:    0.0000

     total cpu time spent up to now is       76.8 secs

     End of self-consistent calculation

 ------ SPIN UP ------------


          k = 0.0000 0.0000 0.0000 (  1377 PWs)   bands (ev):

   -77.5656 -77.5584 -43.6371 -43.6371 -43.6280 -43.6280 -43.5236 -43.4547
     4.1033   7.2629   8.5495   8.5495   8.6767   8.6767   8.6836   8.6836
     8.8748   9.1531   9.1531  10.4491

          k = 0.0000 0.0000 0.1938 (  1401 PWs)   bands (ev):

   -77.5643 -77.5603 -43.6350 -43.6350 -43.6311 -43.6311 -43.5065 -43.4734
     4.8157   6.5343   8.4693   8.4693   8.5631   8.5631   8.7820   8.9152
     8.9152   8.9672   9.1201   9.1201

          k = 0.0000 0.1925 0.0000 (  1403 PWs)   bands (ev):

   -77.5636 -77.5571 -43.6566 -43.6481 -43.6430 -43.6324 -43.5173 -43.4572
     4.8133   7.6639   8.2308   8.3664   8.5608   8.5643   8.6240   8.8071
     8.9122   9.1025   9.1833  11.9735

          k = 0.0000 0.1925 0.1938 (  1411 PWs)   bands (ev):

   -77.5621 -77.5588 -43.6545 -43.6504 -43.6409 -43.6357 -43.5021 -43.4723
     5.4807   7.0350   8.1749   8.3187   8.5522   8.5867   8.6548   8.7513
     8.9718   9.1519   9.2061   9.9541

          k = 0.0000 0.3849 0.0000 (  1416 PWs)   bands (ev):

   -77.5586 -77.5543 -43.6932 -43.6849 -43.6539 -43.6408 -43.5026 -43.4632
     6.5482   7.5345   7.6490   8.3537   8.3645   8.4405   8.9471   9.2068
     9.3691   9.4228   9.7832  14.6410

          k = 0.0000 0.3849 0.1938 (  1426 PWs)   bands (ev):

   -77.5578 -77.5554 -43.6922 -43.6879 -43.6510 -43.6444 -43.4923 -43.4728
     6.7942   7.3068   7.8793   8.0547   8.5414   8.9431   9.0253   9.1979
     9.4026   9.4465   9.6517  11.2082

          k = 0.0000-0.5774 0.0000 (  1416 PWs)   bands (ev):

   -77.5555 -77.5533 -43.7117 -43.7031 -43.6594 -43.6444 -43.4922 -43.4694
     7.2963   7.3084   7.4148   8.2278   8.2750   9.1325   9.1797   9.2092
     9.6630   9.7190  11.5107  12.6370

          k = 0.0000-0.5774 0.1938 (  1422 PWs)   bands (ev):

   -77.5552 -77.5538 -43.7110 -43.7060 -43.6558 -43.6487 -43.4853 -43.4743
     7.0122   7.2797   7.8204   7.8546   8.4853   8.9485   9.4141   9.6802
     9.7069   9.9203  11.4565  12.3475

          k = 0.1667 0.2887 0.0000 (  1414 PWs)   bands (ev):

   -77.5599 -77.5549 -43.6784 -43.6755 -43.6522 -43.6440 -43.5068 -43.4611
     6.0980   7.7251   8.0455   8.0729   8.2514   8.5489   8.5571   9.1565
     9.1743   9.3879   9.6418  13.8784

          k = 0.1667 0.2887 0.1938 (  1415 PWs)   bands (ev):

   -77.5588 -77.5561 -43.6779 -43.6763 -43.6509 -43.6467 -43.4948 -43.4722
     6.5729   7.4212   8.1081   8.1298   8.4222   8.5219   8.5670   8.8758
     9.4163   9.4889   9.6098  10.8488

          k = 0.1667 0.4811 0.0000 (  1423 PWs)   bands (ev):

   -77.5557 -77.5534 -43.7023 -43.6949 -43.6671 -43.6553 -43.4925 -43.4693
     7.4203   7.4990   7.7248   8.1388   8.3046   8.4207   8.9294   9.1209
     9.5623   9.8445  11.0782  14.6757

          k = 0.1667 0.4811 0.1938 (  1420 PWs)   bands (ev):

   -77.5551 -77.5538 -43.7011 -43.6973 -43.6647 -43.6588 -43.4852 -43.4740
     7.2559   7.5004   7.9153   8.0776   8.2738   8.7042   8.9934   9.0018
     9.7051   9.9292  11.3245  12.9693

          k = 0.3333 0.5774 0.0000 (  1434 PWs)   bands (ev):

   -77.5537 -77.5537 -43.6949 -43.6861 -43.6861 -43.6771 -43.4801 -43.4801
     7.4634   8.0336   8.0336   8.0937   8.1217   8.1217   8.8452   9.0374
     9.7878   9.7878  14.0018  14.1777

          k = 0.3333 0.5774 0.1938 (  1428 PWs)   bands (ev):

   -77.5536 -77.5536 -43.6906 -43.6872 -43.6872 -43.6813 -43.4780 -43.4780
     7.6682   7.8129   7.8129   8.0197   8.3561   8.3561   8.7922   8.8366
     9.8709   9.8709  14.5186  14.5186

 ------ SPIN DOWN ----------


          k = 0.0000 0.0000 0.0000 (  1377 PWs)   bands (ev):

   -74.2689 -74.2605 -40.3836 -40.3691 -40.3691 -40.3588 -40.3588 -40.3034
     4.3173   8.1192  10.3637  10.5290  11.1056  11.1056  11.2811  11.2811
    12.3655  12.3655  12.9893  12.9893

          k = 0.0000 0.0000 0.1938 (  1401 PWs)   bands (ev):

   -74.2672 -74.2628 -40.3667 -40.3667 -40.3637 -40.3621 -40.3621 -40.3247
     5.0324   6.8917  10.0474  10.2097  11.1074  11.1074  11.1988  11.1988
    12.5675  12.5675  12.8765  12.8765

          k = 0.0000 0.1925 0.0000 (  1403 PWs)   bands (ev):

   -74.2664 -74.2589 -40.3917 -40.3820 -40.3763 -40.3758 -40.3637 -40.3061
     5.0342   8.6378  10.2653  10.4131  10.9221  11.1233  11.4180  11.5667
    12.0988  12.1850  13.0387  13.9536

          k = 0.0000 0.1925 0.1938 (  1411 PWs)   bands (ev):

   -74.2646 -74.2609 -40.3913 -40.3857 -40.3733 -40.3673 -40.3566 -40.3226
     5.7275   7.5217  10.0084  10.3137  10.8387  11.0162  11.4034  11.4826
    12.4063  12.4482  12.8618  13.0010

          k = 0.0000 0.3849 0.0000 (  1416 PWs)   bands (ev):

   -74.2605 -74.2556 -40.4352 -40.4254 -40.3885 -40.3734 -40.3589 -40.3130
     6.9693   9.3851  10.0368  10.2184  10.6399  11.6092  11.6179  11.8910
    12.1267  12.1959  13.0758  15.4271

          k = 0.0000 0.3849 0.1938 (  1426 PWs)   bands (ev):

   -74.2595 -74.2569 -40.4354 -40.4302 -40.3851 -40.3775 -40.3451 -40.3228
     7.5350   8.8490   9.9207  10.3745  10.5368  11.0541  11.9812  12.1223
    12.2227  12.3239  12.7949  13.2751

          k = 0.0000-0.5774 0.0000 (  1416 PWs)   bands (ev):

   -74.2570 -74.2544 -40.4571 -40.4468 -40.3947 -40.3777 -40.3467 -40.3203
     8.7038   9.2242   9.9717  10.0159  10.7539  11.3586  11.7611  12.5103
    12.5776  12.8087  13.0797  13.9028

          k = 0.0000-0.5774 0.1938 (  1422 PWs)   bands (ev):

   -74.2566 -74.2550 -40.4574 -40.4517 -40.3907 -40.3825 -40.3372 -40.3245
     8.8631   9.1610   9.9212  10.1655  10.8736  11.8107  12.0368  12.3579
    12.5092  12.5667  12.7105  13.3915

          k = 0.1667 0.2887 0.0000 (  1414 PWs)   bands (ev):

   -74.2621 -74.2564 -40.4175 -40.4145 -40.3866 -40.3771 -40.3639 -40.3106
     6.3773   9.3662  10.1018  10.1857  10.8506  11.0610  11.6733  11.9474
    12.0203  12.1355  13.0003  15.3471

          k = 0.1667 0.2887 0.1938 (  1415 PWs)   bands (ev):

   -74.2607 -74.2578 -40.4188 -40.4164 -40.3853 -40.3804 -40.3477 -40.3221
     7.0096   8.5802   9.9756  10.3628  10.5576  10.7778  11.8144  12.0047
    12.2607  12.3643  12.7753  13.2720

          k = 0.1667 0.4811 0.0000 (  1423 PWs)   bands (ev):

   -74.2572 -74.2544 -40.4458 -40.4371 -40.4040 -40.3904 -40.3469 -40.3201
     8.4691   9.5854   9.9164  10.1410  10.8780  11.3776  11.6355  11.7253
    12.2783  12.9491  13.0684  15.5544

          k = 0.1667 0.4811 0.1938 (  1420 PWs)   bands (ev):

   -74.2565 -74.2550 -40.4457 -40.4412 -40.4018 -40.3949 -40.3367 -40.3239
     8.8388   9.5170   9.9256  10.3168  10.5794  10.9527  11.7949  12.1516
    12.3626  12.5033  13.2880  14.2670

          k = 0.3333 0.5774 0.0000 (  1434 PWs)   bands (ev):

   -74.2547 -74.2547 -40.4367 -40.4266 -40.4266 -40.4160 -40.3325 -40.3325
     9.5656   9.5656   9.7870  10.3767  11.2903  11.2957  11.2957  11.8089
    11.8089  12.8323  15.1387  15.2761

          k = 0.3333 0.5774 0.1938 (  1428 PWs)   bands (ev):

   -74.2547 -74.2547 -40.4315 -40.4299 -40.4299 -40.4209 -40.3283 -40.3283
     9.8809   9.8809   9.9403  10.2424  10.6704  10.6704  11.5401  12.1567
    12.1567  12.2521  15.5568  15.5568

     the Fermi energy is    10.9745 ev

!    total energy              =    -658.41066675 Ry
     Harris-Foulkes estimate   =    -658.41066675 Ry
     estimated scf accuracy    <          8.2E-09 Ry

     total all-electron energy =     -5091.003738 Ry

     The total energy is the sum of the following terms:

     one-electron contribution =    -296.39558099 Ry
     hartree contribution      =     160.54449707 Ry
     xc contribution           =     -69.40631919 Ry
     ewald contribution        =    -300.87482263 Ry
     one-center paw contrib.   =    -152.27783712 Ry
     smearing contrib. (-TS)   =      -0.00060389 Ry

     total magnetization       =     5.56 Bohr mag/cell
     absolute magnetization    =     5.96 Bohr mag/cell

     convergence has been achieved in  19 iterations

     Forces acting on atoms (Ry/au):


     negative rho (up, down):  0.000E+00 8.995E-04
     atom    1 type  1   force =     0.00000000    0.00000000    0.00000000
     atom    2 type  1   force =     0.00000000    0.00000000    0.00000000

     Total force =     0.000000     Total SCF correction =     0.000000


     entering subroutine stress ...


     negative rho (up, down):  0.000E+00 8.995E-04
          total   stress  (Ry/bohr**3)                   (kbar)     P= -294.19
  -0.00219004  -0.00000000   0.00000000       -322.17     -0.00      0.00
  -0.00000000  -0.00219004  -0.00000000         -0.00   -322.17     -0.00
   0.00000000   0.00000000  -0.00161948          0.00      0.00   -238.23


     Writing output data file Fe_hcp.save

     init_run     :      2.88s CPU      2.89s WALL (       1 calls)
     electrons    :     77.02s CPU     73.50s WALL (       1 calls)
     forces       :      0.52s CPU      0.45s WALL (       1 calls)
     stress       :      1.47s CPU      1.47s WALL (       1 calls)

     Called by init_run:
     wfcinit      :      1.16s CPU      1.10s WALL (       1 calls)
     potinit      :      1.09s CPU      1.14s WALL (       1 calls)

     Called by electrons:
     c_bands      :     47.18s CPU     43.22s WALL (      19 calls)
     sum_band     :      8.77s CPU      8.60s WALL (      19 calls)
     v_of_rho     :      1.18s CPU      1.21s WALL (      20 calls)
     newd         :      1.48s CPU      1.54s WALL (      20 calls)
     mix_rho      :      0.20s CPU      0.26s WALL (      19 calls)

     Called by c_bands:
     init_us_2    :      0.63s CPU      0.64s WALL (    1148 calls)
     cegterg      :     45.35s CPU     41.36s WALL (     532 calls)

     Called by *egterg:
     h_psi        :     35.81s CPU     34.54s WALL (    2026 calls)
     s_psi        :      1.59s CPU      0.91s WALL (    2026 calls)
     g_psi        :      0.24s CPU      0.24s WALL (    1466 calls)
     cdiaghg      :      2.10s CPU      2.12s WALL (    1998 calls)

     Called by h_psi:
     add_vuspsi   :      1.87s CPU      1.07s WALL (    2026 calls)

     General routines
     calbec       :      2.43s CPU      1.36s WALL (    2614 calls)
     fft          :      0.66s CPU      0.67s WALL (     654 calls)
     ffts         :      0.05s CPU      0.05s WALL (      78 calls)
     fftw         :     34.19s CPU     34.47s WALL (   67932 calls)
     interpolate  :      0.15s CPU      0.16s WALL (      78 calls)
     davcio       :      0.00s CPU      0.01s WALL (      28 calls)


     PAW routines
     PAW_pot      :     19.27s CPU     19.75s WALL (      20 calls)
     PAW_symme    :      0.02s CPU      0.02s WALL (      39 calls)

     PWSCF        :  1m22.31s CPU     1m18.82s WALL


   This run was terminated on:  18:16:39  11May2015            

=------------------------------------------------------------------------------=
   JOB DONE.
=------------------------------------------------------------------------------=
