
     Program PWSCF v.5.1.2 starts on 11May2015 at 19: 0:51 

     This program is part of the open-source Quantum ESPRESSO suite
     for quantum simulation of materials; please cite
         "P. Giannozzi et al., J. Phys.:Condens. Matter 21 395502 (2009);
          URL http://www.quantum-espresso.org", 
     in publications or presentations arising from this work. More details at
     http://www.quantum-espresso.org/quote

     Serial version
     Reading input from Fe_HCP_5.41_174_7_4.pw.in

     Current dimensions of program PWSCF are:
     Max number of different atomic species (ntypx) = 10
     Max number of k-points (npk) =  40000
     Max angular momentum in pseudopotentials (lmaxx) =  3
               file Fe.pbe-spn-kjpaw_psl.0.2.1.UPF: wavefunction(s)  3D renormalized

     G-vector sticks info
     --------------------
     sticks:   dense  smooth     PW     G-vecs:    dense   smooth      PW
     Sum         511     409    121                15965    11347    1955

     Generating pointlists ...
     new r_m :   0.4125 (alat units)  2.2316 (a.u.) for type    1


     bravais-lattice index     =            4
     lattice parameter (alat)  =       5.4100  a.u.
     unit-cell volume          =     238.6007 (a.u.)^3
     number of atoms/cell      =            2
     number of atomic types    =            1
     number of electrons       =        32.00
     number of Kohn-Sham states=           20
     kinetic-energy cutoff     =      50.0000  Ry
     charge density cutoff     =     250.0000  Ry
     convergence threshold     =      1.0E-08
     mixing beta               =       0.7000
     number of iterations used =            8  plain     mixing
     Exchange-correlation      =  SLA  PW   PBX  PBC ( 1  4  3  4 0 0)

     celldm(1)=   5.410000  celldm(2)=   0.000000  celldm(3)=   1.740000
     celldm(4)=   0.000000  celldm(5)=   0.000000  celldm(6)=   0.000000

     crystal axes: (cart. coord. in units of alat)
               a(1) = (   1.000000   0.000000   0.000000 )  
               a(2) = (  -0.500000   0.866025   0.000000 )  
               a(3) = (   0.000000   0.000000   1.740000 )  

     reciprocal axes: (cart. coord. in units 2 pi/alat)
               b(1) = (  1.000000  0.577350 -0.000000 )  
               b(2) = (  0.000000  1.154701  0.000000 )  
               b(3) = (  0.000000 -0.000000  0.574713 )  


     PseudoPot. # 1 for Fe read from file:
     ./Fe.pbe-spn-kjpaw_psl.0.2.1.UPF
     MD5 check sum: a0a08122d52b112de96d1da1d7dd020f
     Pseudo is Projector augmented-wave + core cor, Zval = 16.0
     Generated using "atomic" code by A. Dal Corso  v.5.0.2 svn rev. 9415
     Shape of augmentation charge: PSQ
     Using radial grid of 1191 points,  6 beta functions with: 
                l(1) =   0
                l(2) =   0
                l(3) =   1
                l(4) =   1
                l(5) =   2
                l(6) =   2
     Q(r) pseudized with 0 coefficients 


     atomic species   valence    mass     pseudopotential
        Fe            16.00    55.85000     Fe( 1.00)

     Starting magnetic structure 
     atomic species   magnetization
        Fe           0.700

     24 Sym. Ops., with inversion, found (12 have fractional translation)



   Cartesian axes

     site n.     atom                  positions (alat units)
         1           Fe  tau(   1) = (  -0.0000000   0.5773503   0.4350000  )
         2           Fe  tau(   2) = (   0.5000000   0.2886751   1.3050000  )

     number of k points=    48  Marzari-Vanderbilt smearing, width (Ry)=  0.0250
                       cart. coord. in units 2pi/alat
        k(    1) = (   0.0000000   0.0000000   0.0000000), wk =   0.0051020
        k(    2) = (   0.0000000   0.0000000   0.1436782), wk =   0.0102041
        k(    3) = (   0.0000000   0.0000000  -0.2873563), wk =   0.0051020
        k(    4) = (   0.0000000   0.1649572   0.0000000), wk =   0.0306122
        k(    5) = (   0.0000000   0.1649572   0.1436782), wk =   0.0612245
        k(    6) = (   0.0000000   0.1649572  -0.2873563), wk =   0.0306122
        k(    7) = (   0.0000000   0.3299144   0.0000000), wk =   0.0306122
        k(    8) = (   0.0000000   0.3299144   0.1436782), wk =   0.0612245
        k(    9) = (   0.0000000   0.3299144  -0.2873563), wk =   0.0306122
        k(   10) = (   0.0000000   0.4948717   0.0000000), wk =   0.0306122
        k(   11) = (   0.0000000   0.4948717   0.1436782), wk =   0.0612245
        k(   12) = (   0.0000000   0.4948717  -0.2873563), wk =   0.0306122
        k(   13) = (   0.1428571   0.2474358   0.0000000), wk =   0.0306122
        k(   14) = (   0.1428571   0.2474358   0.1436782), wk =   0.0612245
        k(   15) = (   0.1428571   0.2474358  -0.2873563), wk =   0.0306122
        k(   16) = (   0.1428571   0.4123930   0.0000000), wk =   0.0612245
        k(   17) = (   0.1428571   0.4123930   0.1436782), wk =   0.1224490
        k(   18) = (   0.1428571   0.4123930  -0.2873563), wk =   0.0612245
        k(   19) = (   0.1428571   0.5773503   0.0000000), wk =   0.0306122
        k(   20) = (   0.1428571   0.5773503   0.1436782), wk =   0.0612245
        k(   21) = (   0.1428571   0.5773503  -0.2873563), wk =   0.0306122
        k(   22) = (   0.2857143   0.4948717   0.0000000), wk =   0.0306122
        k(   23) = (   0.2857143   0.4948717   0.1436782), wk =   0.0612245
        k(   24) = (   0.2857143   0.4948717  -0.2873563), wk =   0.0306122
        k(   25) = (   0.0000000   0.0000000   0.0000000), wk =   0.0051020
        k(   26) = (   0.0000000   0.0000000   0.1436782), wk =   0.0102041
        k(   27) = (   0.0000000   0.0000000  -0.2873563), wk =   0.0051020
        k(   28) = (   0.0000000   0.1649572   0.0000000), wk =   0.0306122
        k(   29) = (   0.0000000   0.1649572   0.1436782), wk =   0.0612245
        k(   30) = (   0.0000000   0.1649572  -0.2873563), wk =   0.0306122
        k(   31) = (   0.0000000   0.3299144   0.0000000), wk =   0.0306122
        k(   32) = (   0.0000000   0.3299144   0.1436782), wk =   0.0612245
        k(   33) = (   0.0000000   0.3299144  -0.2873563), wk =   0.0306122
        k(   34) = (   0.0000000   0.4948717   0.0000000), wk =   0.0306122
        k(   35) = (   0.0000000   0.4948717   0.1436782), wk =   0.0612245
        k(   36) = (   0.0000000   0.4948717  -0.2873563), wk =   0.0306122
        k(   37) = (   0.1428571   0.2474358   0.0000000), wk =   0.0306122
        k(   38) = (   0.1428571   0.2474358   0.1436782), wk =   0.0612245
        k(   39) = (   0.1428571   0.2474358  -0.2873563), wk =   0.0306122
        k(   40) = (   0.1428571   0.4123930   0.0000000), wk =   0.0612245
        k(   41) = (   0.1428571   0.4123930   0.1436782), wk =   0.1224490
        k(   42) = (   0.1428571   0.4123930  -0.2873563), wk =   0.0612245
        k(   43) = (   0.1428571   0.5773503   0.0000000), wk =   0.0306122
        k(   44) = (   0.1428571   0.5773503   0.1436782), wk =   0.0612245
        k(   45) = (   0.1428571   0.5773503  -0.2873563), wk =   0.0306122
        k(   46) = (   0.2857143   0.4948717   0.0000000), wk =   0.0306122
        k(   47) = (   0.2857143   0.4948717   0.1436782), wk =   0.0612245
        k(   48) = (   0.2857143   0.4948717  -0.2873563), wk =   0.0306122

     Dense  grid:    15965 G-vectors     FFT dimensions: (  27,  27,  48)

     Smooth grid:    11347 G-vectors     FFT dimensions: (  25,  25,  45)

     Largest allocated arrays     est. size (Mb)     dimensions
        Kohn-Sham Wavefunctions         0.44 Mb     (    1441,   20)
        NL pseudopotentials             0.79 Mb     (    1441,   36)
        Each V/rho on FFT grid          1.07 Mb     (   34992,   2)
        Each G-vector array             0.12 Mb     (   15965)
        G-vector shells                 0.01 Mb     (     835)
     Largest temporary arrays     est. size (Mb)     dimensions
        Auxiliary wavefunctions         1.76 Mb     (    1441,   80)
        Each subspace H/S matrix        0.10 Mb     (      80,   80)
        Each <psi_i|beta_j> matrix      0.01 Mb     (      36,   20)
        Arrays for rho mixing           4.27 Mb     (   34992,    8)

     Check: negative/imaginary core charge=   -0.000321    0.000000

     Initial potential from superposition of free atoms

     starting charge   31.99912, renormalised to   32.00000
     Starting wfc are   26 randomized atomic wfcs

     total cpu time spent up to now is        4.3 secs

     Self-consistent Calculation

     iteration #  1     ecut=    50.00 Ry     beta=0.70
     Davidson diagonalization with overlap
     ethr =  1.00E-02,  avg # of iterations =  2.0

     negative rho (up, down):  0.000E+00 1.089E-03

     Magnetic moment per site:
     atom:    1    charge:   14.5984    magn:    5.9420    constr:    0.0000
     atom:    2    charge:   14.5984    magn:    5.9420    constr:    0.0000

     total cpu time spent up to now is       10.1 secs

     total energy              =    -657.96155395 Ry
     Harris-Foulkes estimate   =    -656.24551364 Ry
     estimated scf accuracy    <       2.84084837 Ry

     total magnetization       =     8.00 Bohr mag/cell
     absolute magnetization    =     8.27 Bohr mag/cell

     iteration #  2     ecut=    50.00 Ry     beta=0.70
     Davidson diagonalization with overlap
     ethr =  8.88E-03,  avg # of iterations =  1.6

     negative rho (up, down):  0.000E+00 1.042E-03

     Magnetic moment per site:
     atom:    1    charge:   14.8303    magn:    4.0182    constr:    0.0000
     atom:    2    charge:   14.8303    magn:    4.0182    constr:    0.0000

     total cpu time spent up to now is       15.2 secs

     total energy              =    -658.12897697 Ry
     Harris-Foulkes estimate   =    -658.17989624 Ry
     estimated scf accuracy    <       0.87333569 Ry

     total magnetization       =     6.43 Bohr mag/cell
     absolute magnetization    =     6.80 Bohr mag/cell

     iteration #  3     ecut=    50.00 Ry     beta=0.70
     Davidson diagonalization with overlap
     ethr =  2.73E-03,  avg # of iterations =  3.1

     negative rho (up, down):  0.000E+00 1.215E-03

     Magnetic moment per site:
     atom:    1    charge:   14.7147    magn:    2.9670    constr:    0.0000
     atom:    2    charge:   14.7147    magn:    2.9670    constr:    0.0000

     total cpu time spent up to now is       21.0 secs

     total energy              =    -658.17089777 Ry
     Harris-Foulkes estimate   =    -658.66258684 Ry
     estimated scf accuracy    <       1.40419740 Ry

     total magnetization       =     6.51 Bohr mag/cell
     absolute magnetization    =     6.83 Bohr mag/cell

     iteration #  4     ecut=    50.00 Ry     beta=0.70
     Davidson diagonalization with overlap
     ethr =  2.73E-03,  avg # of iterations =  2.7

     negative rho (up, down):  0.000E+00 1.072E-03

     Magnetic moment per site:
     atom:    1    charge:   14.7582    magn:    3.0699    constr:    0.0000
     atom:    2    charge:   14.7582    magn:    3.0699    constr:    0.0000

     total cpu time spent up to now is       26.6 secs

     total energy              =    -658.40405472 Ry
     Harris-Foulkes estimate   =    -658.40298285 Ry
     estimated scf accuracy    <       0.00434173 Ry

     total magnetization       =     5.92 Bohr mag/cell
     absolute magnetization    =     6.28 Bohr mag/cell

     iteration #  5     ecut=    50.00 Ry     beta=0.70
     Davidson diagonalization with overlap
     ethr =  1.36E-05,  avg # of iterations =  3.5

     negative rho (up, down):  0.000E+00 1.064E-03

     Magnetic moment per site:
     atom:    1    charge:   14.7568    magn:    3.0632    constr:    0.0000
     atom:    2    charge:   14.7568    magn:    3.0632    constr:    0.0000

     total cpu time spent up to now is       34.0 secs

     total energy              =    -658.41031176 Ry
     Harris-Foulkes estimate   =    -658.40954782 Ry
     estimated scf accuracy    <       0.00114419 Ry

     total magnetization       =     6.00 Bohr mag/cell
     absolute magnetization    =     6.31 Bohr mag/cell

     iteration #  6     ecut=    50.00 Ry     beta=0.70
     Davidson diagonalization with overlap
     ethr =  3.58E-06,  avg # of iterations =  1.9

     negative rho (up, down):  0.000E+00 1.010E-03

     Magnetic moment per site:
     atom:    1    charge:   14.7577    magn:    3.0525    constr:    0.0000
     atom:    2    charge:   14.7577    magn:    3.0525    constr:    0.0000

     total cpu time spent up to now is       39.0 secs

     total energy              =    -658.40751886 Ry
     Harris-Foulkes estimate   =    -658.41055760 Ry
     estimated scf accuracy    <       0.00056547 Ry

     total magnetization       =     6.00 Bohr mag/cell
     absolute magnetization    =     6.30 Bohr mag/cell

     iteration #  7     ecut=    50.00 Ry     beta=0.70
     Davidson diagonalization with overlap
     ethr =  1.77E-06,  avg # of iterations =  3.4

     negative rho (up, down):  0.000E+00 1.044E-03

     Magnetic moment per site:
     atom:    1    charge:   14.7571    magn:    3.0586    constr:    0.0000
     atom:    2    charge:   14.7571    magn:    3.0586    constr:    0.0000

     total cpu time spent up to now is       45.9 secs

     total energy              =    -658.41135310 Ry
     Harris-Foulkes estimate   =    -658.40891301 Ry
     estimated scf accuracy    <       0.00076010 Ry

     total magnetization       =     6.00 Bohr mag/cell
     absolute magnetization    =     6.25 Bohr mag/cell

     iteration #  8     ecut=    50.00 Ry     beta=0.70
     Davidson diagonalization with overlap
     ethr =  1.77E-06,  avg # of iterations =  2.3

     negative rho (up, down):  0.000E+00 1.044E-03

     Magnetic moment per site:
     atom:    1    charge:   14.7573    magn:    3.0582    constr:    0.0000
     atom:    2    charge:   14.7573    magn:    3.0582    constr:    0.0000

     total cpu time spent up to now is       51.8 secs

     total energy              =    -658.41156880 Ry
     Harris-Foulkes estimate   =    -658.41158074 Ry
     estimated scf accuracy    <       0.00017423 Ry

     total magnetization       =     5.99 Bohr mag/cell
     absolute magnetization    =     6.26 Bohr mag/cell

     iteration #  9     ecut=    50.00 Ry     beta=0.70
     Davidson diagonalization with overlap
     ethr =  5.44E-07,  avg # of iterations =  1.0

     negative rho (up, down):  0.000E+00 1.043E-03

     Magnetic moment per site:
     atom:    1    charge:   14.7574    magn:    3.0570    constr:    0.0000
     atom:    2    charge:   14.7574    magn:    3.0570    constr:    0.0000

     total cpu time spent up to now is       56.5 secs

     total energy              =    -658.41159010 Ry
     Harris-Foulkes estimate   =    -658.41157463 Ry
     estimated scf accuracy    <       0.00018101 Ry

     total magnetization       =     5.99 Bohr mag/cell
     absolute magnetization    =     6.26 Bohr mag/cell

     iteration # 10     ecut=    50.00 Ry     beta=0.70
     Davidson diagonalization with overlap
     ethr =  5.44E-07,  avg # of iterations =  1.0

     negative rho (up, down):  0.000E+00 1.029E-03

     Magnetic moment per site:
     atom:    1    charge:   14.7592    magn:    3.0415    constr:    0.0000
     atom:    2    charge:   14.7592    magn:    3.0415    constr:    0.0000

     total cpu time spent up to now is       61.3 secs

     total energy              =    -658.41141697 Ry
     Harris-Foulkes estimate   =    -658.41159302 Ry
     estimated scf accuracy    <       0.00015648 Ry

     total magnetization       =     5.99 Bohr mag/cell
     absolute magnetization    =     6.26 Bohr mag/cell

     iteration # 11     ecut=    50.00 Ry     beta=0.70
     Davidson diagonalization with overlap
     ethr =  4.89E-07,  avg # of iterations =  2.9

     negative rho (up, down):  0.000E+00 1.029E-03

     Magnetic moment per site:
     atom:    1    charge:   14.7590    magn:    3.0427    constr:    0.0000
     atom:    2    charge:   14.7590    magn:    3.0427    constr:    0.0000

     total cpu time spent up to now is       67.5 secs

     total energy              =    -658.41171540 Ry
     Harris-Foulkes estimate   =    -658.41157833 Ry
     estimated scf accuracy    <       0.00012112 Ry

     total magnetization       =     5.98 Bohr mag/cell
     absolute magnetization    =     6.24 Bohr mag/cell

     iteration # 12     ecut=    50.00 Ry     beta=0.70
     Davidson diagonalization with overlap
     ethr =  3.78E-07,  avg # of iterations =  1.2

     negative rho (up, down):  0.000E+00 1.032E-03

     Magnetic moment per site:
     atom:    1    charge:   14.7585    magn:    3.0454    constr:    0.0000
     atom:    2    charge:   14.7585    magn:    3.0454    constr:    0.0000

     total cpu time spent up to now is       72.0 secs

     total energy              =    -658.41177571 Ry
     Harris-Foulkes estimate   =    -658.41171986 Ry
     estimated scf accuracy    <       0.00003661 Ry

     total magnetization       =     5.98 Bohr mag/cell
     absolute magnetization    =     6.24 Bohr mag/cell

     iteration # 13     ecut=    50.00 Ry     beta=0.70
     Davidson diagonalization with overlap
     ethr =  1.14E-07,  avg # of iterations =  2.2

     negative rho (up, down):  0.000E+00 1.032E-03

     Magnetic moment per site:
     atom:    1    charge:   14.7586    magn:    3.0453    constr:    0.0000
     atom:    2    charge:   14.7586    magn:    3.0453    constr:    0.0000

     total cpu time spent up to now is       77.0 secs

     total energy              =    -658.41178158 Ry
     Harris-Foulkes estimate   =    -658.41178184 Ry
     estimated scf accuracy    <       0.00000017 Ry

     total magnetization       =     5.98 Bohr mag/cell
     absolute magnetization    =     6.24 Bohr mag/cell

     iteration # 14     ecut=    50.00 Ry     beta=0.70
     Davidson diagonalization with overlap
     ethr =  5.37E-10,  avg # of iterations =  3.8

     negative rho (up, down):  0.000E+00 1.033E-03

     Magnetic moment per site:
     atom:    1    charge:   14.7585    magn:    3.0457    constr:    0.0000
     atom:    2    charge:   14.7585    magn:    3.0457    constr:    0.0000

     total cpu time spent up to now is       84.0 secs

     total energy              =    -658.41178251 Ry
     Harris-Foulkes estimate   =    -658.41178195 Ry
     estimated scf accuracy    <       0.00000055 Ry

     total magnetization       =     5.98 Bohr mag/cell
     absolute magnetization    =     6.24 Bohr mag/cell

     iteration # 15     ecut=    50.00 Ry     beta=0.70
     Davidson diagonalization with overlap
     ethr =  5.37E-10,  avg # of iterations =  2.6

     negative rho (up, down):  0.000E+00 1.033E-03

     Magnetic moment per site:
     atom:    1    charge:   14.7585    magn:    3.0456    constr:    0.0000
     atom:    2    charge:   14.7585    magn:    3.0456    constr:    0.0000

     total cpu time spent up to now is       89.7 secs

     End of self-consistent calculation

 ------ SPIN UP ------------


          k = 0.0000 0.0000 0.0000 (  1389 PWs)   bands (ev):

   -77.7873 -77.7804 -43.8467 -43.8467 -43.8385 -43.8385 -43.7566 -43.6934
     3.9799   7.0089   8.3306   8.3306   8.4495   8.4495   8.5620   8.5627
     8.5627   9.0056   9.0056  10.2583

          k = 0.0000 0.0000 0.1437 (  1395 PWs)   bands (ev):

   -77.7865 -77.7814 -43.8454 -43.8454 -43.8406 -43.8406 -43.7472 -43.7031
     4.3766   6.6620   8.2854   8.2854   8.3910   8.3910   8.5113   8.6913
     8.6913   8.9833   8.9833   9.0422

          k = 0.0000 0.0000-0.2874 (  1402 PWs)   bands (ev):

   -77.7840 -77.7840 -43.8432 -43.8432 -43.8432 -43.8432 -43.7260 -43.7260
     5.4651   5.4651   8.2995   8.2995   8.2995   8.2995   8.4789   8.4789
     8.8773   8.8773   8.8773   8.8773

          k = 0.0000 0.1650 0.0000 (  1411 PWs)   bands (ev):

   -77.7858 -77.7794 -43.8614 -43.8543 -43.8515 -43.8420 -43.7523 -43.6950
     4.5081   7.3297   8.1751   8.2208   8.3513   8.4726   8.5230   8.5294
     8.6267   8.7375   9.0276  11.4665

          k = 0.0000 0.1650 0.1437 (  1419 PWs)   bands (ev):

   -77.7849 -77.7806 -43.8608 -43.8553 -43.8504 -43.8440 -43.7442 -43.7033
     4.8889   7.0325   8.0720   8.1697   8.3564   8.4087   8.4830   8.5481
     8.6934   8.8422   8.9981   9.9997

          k = 0.0000 0.1650-0.2874 (  1426 PWs)   bands (ev):

   -77.7828 -77.7828 -43.8585 -43.8585 -43.8475 -43.8475 -43.7237 -43.7237
     5.9232   5.9232   8.1003   8.1003   8.3733   8.3733   8.4426   8.4426
     8.8807   8.8807   9.1555   9.1555

          k = 0.0000 0.3299 0.0000 (  1426 PWs)   bands (ev):

   -77.7815 -77.7770 -43.8939 -43.8860 -43.8610 -43.8495 -43.7415 -43.6983
     5.9106   7.5161   7.5495   8.1520   8.2801   8.3003   8.4958   8.9874
     9.0485   9.0496   9.2158  13.6111

          k = 0.0000 0.3299 0.1437 (  1417 PWs)   bands (ev):

   -77.7807 -77.7776 -43.8927 -43.8870 -43.8594 -43.8511 -43.7347 -43.7045
     6.1738   7.3110   7.6798   7.9819   8.3828   8.5187   8.5503   8.8542
     9.0223   9.1130   9.1995  11.2022

          k = 0.0000 0.3299-0.2874 (  1418 PWs)   bands (ev):

   -77.7791 -77.7791 -43.8905 -43.8905 -43.8555 -43.8555 -43.7188 -43.7188
     6.7781   6.7781   7.8669   7.8669   8.5977   8.5977   8.6539   8.6539
     9.0818   9.0818   9.6162   9.6162

          k = 0.0000 0.4949 0.0000 (  1428 PWs)   bands (ev):

   -77.7779 -77.7751 -43.9197 -43.9110 -43.8680 -43.8553 -43.7292 -43.7043
     7.0046   7.2192   7.2655   8.0999   8.1778   8.6727   8.9288   9.0509
     9.3856   9.4323  10.4278  13.6609

          k = 0.0000 0.4949 0.1437 (  1429 PWs)   bands (ev):

   -77.7775 -77.7755 -43.9190 -43.9132 -43.8661 -43.8571 -43.7249 -43.7073
     6.8624   7.1798   7.5472   7.7658   8.2910   8.9027   8.9538   9.3960
     9.3972   9.4313  10.3418  12.7114

          k = 0.0000 0.4949-0.2874 (  1426 PWs)   bands (ev):

   -77.7764 -77.7764 -43.9165 -43.9165 -43.8616 -43.8616 -43.7155 -43.7155
     6.9443   6.9443   7.6845   7.6845   8.5811   8.5811   9.4168   9.4168
     9.4575   9.4575  11.0299  11.0299

          k = 0.1429 0.2474 0.0000 (  1422 PWs)   bands (ev):

   -77.7829 -77.7775 -43.8815 -43.8776 -43.8584 -43.8510 -43.7445 -43.6972
     5.4957   7.7336   7.7363   7.9394   8.2009   8.2737   8.4772   8.8138
     8.9542   9.0119   9.1506  12.9942

          k = 0.1429 0.2474 0.1437 (  1426 PWs)   bands (ev):

   -77.7822 -77.7784 -43.8810 -43.8782 -43.8576 -43.8525 -43.7375 -43.7042
     5.8198   7.4258   7.8336   7.9582   8.2360   8.3038   8.4462   8.7559
     9.0170   9.0207   9.1679  10.8647

          k = 0.1429 0.2474-0.2874 (  1410 PWs)   bands (ev):

   -77.7800 -77.7800 -43.8795 -43.8795 -43.8550 -43.8550 -43.7199 -43.7199
     6.6409   6.6409   7.9609   7.9609   8.2531   8.2531   8.5713   8.5713
     9.1173   9.1173   9.4877   9.4877

          k = 0.1429 0.4124 0.0000 (  1427 PWs)   bands (ev):

   -77.7787 -77.7755 -43.9066 -43.9008 -43.8712 -43.8608 -43.7328 -43.7028
     6.9428   7.3610   7.5587   8.0383   8.0800   8.2708   8.5715   8.9843
     9.1499   9.4657  10.0444  14.9194

          k = 0.1429 0.4124 0.1437 (  1422 PWs)   bands (ev):

   -77.7782 -77.7759 -43.9062 -43.9022 -43.8697 -43.8626 -43.7274 -43.7062
     6.9575   7.3419   7.6523   7.8958   8.2377   8.4520   8.6069   8.8288
     9.2437   9.5340  10.0674  12.4657

          k = 0.1429 0.4124-0.2874 (  1432 PWs)   bands (ev):

   -77.7772 -77.7772 -43.9048 -43.9048 -43.8667 -43.8667 -43.7163 -43.7163
     7.1120   7.1120   7.8466   7.8466   8.4086   8.4086   8.6871   8.6871
     9.5424   9.5424  10.6425  10.6425

          k = 0.1429 0.5774 0.0000 (  1438 PWs)   bands (ev):

   -77.7768 -77.7749 -43.9189 -43.9107 -43.8772 -43.8657 -43.7246 -43.7080
     7.2400   7.3449   7.3919   8.0647   8.0806   8.5206   8.7870   8.9725
     9.4130   9.5843  11.8870  12.7634

          k = 0.1429 0.5774 0.1437 (  1421 PWs)   bands (ev):

   -77.7763 -77.7749 -43.9180 -43.9120 -43.8755 -43.8672 -43.7209 -43.7092
     7.0613   7.3714   7.6880   7.7551   8.1003   8.7242   8.8928   8.9198
     9.4410   9.6547  12.0470  12.7618

          k = 0.1429 0.5774-0.2874 (  1428 PWs)   bands (ev):

   -77.7757 -77.7757 -43.9157 -43.9157 -43.8716 -43.8716 -43.7145 -43.7145
     7.1331   7.1331   7.7752   7.7752   8.3647   8.3647   9.0336   9.0336
     9.6008   9.6008  12.5311  12.5311

          k = 0.2857 0.4949 0.0000 (  1436 PWs)   bands (ev):

   -77.7761 -77.7749 -43.9083 -43.9031 -43.8886 -43.8807 -43.7217 -43.7100
     7.3340   7.6833   7.8608   7.8808   7.9492   8.0838   8.6091   8.8891
     9.3595   9.6006  11.9786  15.1187

          k = 0.2857 0.4949 0.1437 (  1441 PWs)   bands (ev):

   -77.7760 -77.7752 -43.9073 -43.9040 -43.8886 -43.8825 -43.7190 -43.7109
     7.3774   7.5762   7.7833   7.8877   8.0645   8.2122   8.6000   8.7441
     9.4476   9.6420  12.2302  14.6079

          k = 0.2857 0.4949-0.2874 (  1436 PWs)   bands (ev):

   -77.7755 -77.7755 -43.9057 -43.9057 -43.8858 -43.8858 -43.7139 -43.7139
     7.4472   7.4472   7.8705   7.8705   8.1726   8.1726   8.6065   8.6065
     9.6199   9.6199  13.1018  13.1018

 ------ SPIN DOWN ----------


          k = 0.0000 0.0000 0.0000 (  1389 PWs)   bands (ev):

   -74.3243 -74.3165 -40.4290 -40.4290 -40.4253 -40.4198 -40.4198 -40.3505
     4.3038   8.0980  10.3315  10.4113  11.0835  11.0835  11.2491  11.2491
    12.2858  12.2858  12.8759  12.8759

          k = 0.0000 0.0000 0.1437 (  1395 PWs)   bands (ev):

   -74.3234 -74.3176 -40.4276 -40.4276 -40.4218 -40.4218 -40.4143 -40.3619
     4.7037   7.3400  10.0563  10.2414  11.0805  11.0805  11.2010  11.2010
    12.4019  12.4019  12.8163  12.8163

          k = 0.0000 0.0000-0.2874 (  1402 PWs)   bands (ev):

   -74.3206 -74.3206 -40.4249 -40.4249 -40.4249 -40.4249 -40.3886 -40.3886
     5.8314   5.8314  10.0561  10.0561  11.1166  11.1166  11.1166  11.1166
    12.6360  12.6360  12.6360  12.6360

          k = 0.0000 0.1650 0.0000 (  1411 PWs)   bands (ev):

   -74.3225 -74.3152 -40.4462 -40.4378 -40.4343 -40.4236 -40.4201 -40.3522
     4.8347   8.4980  10.2091  10.3931  10.9341  11.1103  11.3172  11.4647
    12.0756  12.1500  12.9124  13.5968

          k = 0.0000 0.1650 0.1437 (  1419 PWs)   bands (ev):

   -74.3214 -74.3164 -40.4460 -40.4394 -40.4330 -40.4257 -40.4097 -40.3618
     5.2258   7.7916   9.9841  10.3276  10.8842  11.0687  11.3063  11.4144
    12.2392  12.2952  12.8243  13.0113

          k = 0.0000 0.1650-0.2874 (  1426 PWs)   bands (ev):

   -74.3191 -74.3191 -40.4434 -40.4434 -40.4297 -40.4297 -40.3854 -40.3854
     6.3286   6.3286  10.1016  10.1016  10.9300  10.9300  11.3332  11.3332
    12.5848  12.5848  12.5977  12.5977

          k = 0.0000 0.3299 0.0000 (  1426 PWs)   bands (ev):

   -74.3176 -74.3123 -40.4843 -40.4752 -40.4454 -40.4321 -40.4071 -40.3563
     6.3206   9.2669   9.9843  10.2842  10.6363  11.3389  11.6579  11.8962
    11.8979  11.9862  12.9464  15.0858

          k = 0.0000 0.3299 0.1437 (  1417 PWs)   bands (ev):

   -74.3167 -74.3130 -40.4838 -40.4771 -40.4435 -40.4341 -40.3985 -40.3629
     6.6735   8.8254   9.8730  10.4012  10.5221  11.0522  11.8165  11.9286
    11.9877  12.1450  12.8065  13.4184

          k = 0.0000 0.3299-0.2874 (  1418 PWs)   bands (ev):

   -74.3149 -74.3149 -40.4816 -40.4816 -40.4389 -40.4389 -40.3794 -40.3794
     7.6410   7.6410  10.1432  10.1432  10.6964  10.6964  11.8519  11.8519
    12.4816  12.4816  12.5457  12.5457

          k = 0.0000 0.4949 0.0000 (  1428 PWs)   bands (ev):

   -74.3133 -74.3101 -40.5147 -40.5048 -40.4536 -40.4388 -40.3926 -40.3633
     8.2082   9.3321   9.9429  10.0535  10.6958  11.3039  11.7186  12.2898
    12.4184  12.4722  12.9511  14.7018

          k = 0.0000 0.4949 0.1437 (  1429 PWs)   bands (ev):

   -74.3128 -74.3106 -40.5145 -40.5076 -40.4514 -40.4410 -40.3870 -40.3664
     8.3959   9.2458   9.8380  10.1882  10.7016  11.4851  11.8632  12.1886
    12.4277  12.4515  12.7588  13.8157

          k = 0.0000 0.4949-0.2874 (  1426 PWs)   bands (ev):

   -74.3117 -74.3117 -40.5121 -40.5121 -40.4462 -40.4462 -40.3755 -40.3755
     8.8392   8.8392  10.0288  10.0288  11.1460  11.1460  12.2236  12.2236
    12.4984  12.4984  12.6585  12.6585

          k = 0.1429 0.2474 0.0000 (  1422 PWs)   bands (ev):

   -74.3190 -74.3131 -40.4696 -40.4654 -40.4424 -40.4338 -40.4109 -40.3549
     5.8494   9.1294  10.0417  10.2858  10.8690  10.9510  11.7160  11.7469
    11.8973  12.0274  12.8910  14.7675

          k = 0.1429 0.2474 0.1437 (  1426 PWs)   bands (ev):

   -74.3182 -74.3139 -40.4699 -40.4665 -40.4415 -40.4355 -40.4017 -40.3625
     6.2178   8.5735   9.9106  10.3572  10.6826  10.8660  11.6783  11.8111
    12.0537  12.1868  12.7716  13.3380

          k = 0.1429 0.2474-0.2874 (  1410 PWs)   bands (ev):

   -74.3159 -74.3159 -40.4686 -40.4686 -40.4387 -40.4387 -40.3807 -40.3807
     7.2512   7.2512  10.1773  10.1773  10.6436  10.6436  11.7307  11.7307
    12.4826  12.4826  12.5877  12.5877

          k = 0.1429 0.4124 0.0000 (  1427 PWs)   bands (ev):

   -74.3143 -74.3106 -40.4994 -40.4927 -40.4573 -40.4455 -40.3967 -40.3614
     7.6182   9.5834  10.0128  10.0342  10.7441  11.3815  11.4492  11.7132
    12.2162  12.5971  12.8527  15.7850

          k = 0.1429 0.4124 0.1437 (  1422 PWs)   bands (ev):

   -74.3137 -74.3110 -40.4995 -40.4947 -40.4559 -40.4476 -40.3897 -40.3650
     7.9044   9.4509   9.8433  10.2157  10.5921  11.0096  11.7069  11.9038
    12.3590  12.4373  12.8138  14.1014

          k = 0.1429 0.4124-0.2874 (  1432 PWs)   bands (ev):

   -74.3125 -74.3125 -40.4982 -40.4982 -40.4524 -40.4524 -40.3762 -40.3762
     8.6520   8.6520  10.1505  10.1505  10.5893  10.5893  12.0009  12.0009
    12.4427  12.4427  12.9473  12.9473

          k = 0.1429 0.5774 0.0000 (  1438 PWs)   bands (ev):

   -74.3120 -74.3097 -40.5137 -40.5041 -40.4645 -40.4510 -40.3871 -40.3675
     8.9418   9.4246   9.8712  10.0636  10.8468  11.2428  11.5277  12.1620
    12.1626  12.8354  13.4678  14.3057

          k = 0.1429 0.5774 0.1437 (  1421 PWs)   bands (ev):

   -74.3115 -74.3099 -40.5133 -40.5064 -40.4627 -40.4530 -40.3822 -40.3685
     9.0461   9.4307   9.8811  10.2095  10.6823  11.1988  11.7290  12.1808
    12.2486  12.5261  13.5316  14.1828

          k = 0.1429 0.5774-0.2874 (  1428 PWs)   bands (ev):

   -74.3108 -74.3108 -40.5110 -40.5110 -40.4582 -40.4582 -40.3740 -40.3740
     9.2694   9.2694  10.1183  10.1183  10.8752  10.8752  12.0616  12.0616
    12.2882  12.2882  13.7976  13.7976

          k = 0.2857 0.4949 0.0000 (  1436 PWs)   bands (ev):

   -74.3111 -74.3097 -40.5013 -40.4951 -40.4780 -40.4687 -40.3836 -40.3699
     9.1131   9.7163   9.7822  10.2319  11.1160  11.2166  11.3386  11.5786
    12.0667  12.7200  13.7949  16.1026

          k = 0.2857 0.4949 0.1437 (  1441 PWs)   bands (ev):

   -74.3110 -74.3100 -40.5005 -40.4967 -40.4782 -40.4710 -40.3797 -40.3702
     9.3007   9.8208   9.8830  10.1750  10.8016  10.8599  11.4030  11.9203
    12.2469  12.3787  14.0076  15.6766

          k = 0.2857 0.4949-0.2874 (  1436 PWs)   bands (ev):

   -74.3104 -74.3104 -40.4992 -40.4992 -40.4753 -40.4753 -40.3731 -40.3731
     9.7056   9.7056  10.1892  10.1892  10.4146  10.4146  11.8088  11.8088
    12.2601  12.2601  14.6063  14.6063

     the Fermi energy is    10.8708 ev

!    total energy              =    -658.41178266 Ry
     Harris-Foulkes estimate   =    -658.41178264 Ry
     estimated scf accuracy    <          2.9E-09 Ry

     total all-electron energy =     -5091.004854 Ry

     The total energy is the sum of the following terms:

     one-electron contribution =    -297.38752827 Ry
     hartree contribution      =     160.88382106 Ry
     xc contribution           =     -69.41826768 Ry
     ewald contribution        =    -300.21106229 Ry
     one-center paw contrib.   =    -152.27887553 Ry
     smearing contrib. (-TS)   =       0.00013006 Ry

     total magnetization       =     5.98 Bohr mag/cell
     absolute magnetization    =     6.24 Bohr mag/cell

     convergence has been achieved in  15 iterations

     Forces acting on atoms (Ry/au):


     negative rho (up, down):  0.000E+00 1.033E-03
     atom    1 type  1   force =     0.00000000    0.00000000    0.00000000
     atom    2 type  1   force =     0.00000000    0.00000000    0.00000000

     Total force =     0.000000     Total SCF correction =     0.000000


     entering subroutine stress ...


     negative rho (up, down):  0.000E+00 1.033E-03
          total   stress  (Ry/bohr**3)                   (kbar)     P= -284.49
  -0.00199154   0.00000000   0.00000000       -292.97      0.00      0.00
   0.00000000  -0.00199154  -0.00000000          0.00   -292.97     -0.00
   0.00000000  -0.00000000  -0.00181873          0.00     -0.00   -267.54


     Writing output data file Fe_hcp.save

     init_run     :      3.80s CPU      3.87s WALL (       1 calls)
     electrons    :     90.17s CPU     85.46s WALL (       1 calls)
     forces       :      0.64s CPU      0.55s WALL (       1 calls)
     stress       :      1.88s CPU      1.93s WALL (       1 calls)

     Called by init_run:
     wfcinit      :      2.08s CPU      2.04s WALL (       1 calls)
     potinit      :      1.11s CPU      1.19s WALL (       1 calls)

     Called by electrons:
     c_bands      :     62.85s CPU     57.75s WALL (      15 calls)
     sum_band     :     10.84s CPU     10.66s WALL (      15 calls)
     v_of_rho     :      0.94s CPU      0.98s WALL (      16 calls)
     newd         :      1.18s CPU      1.25s WALL (      16 calls)
     mix_rho      :      0.15s CPU      0.20s WALL (      15 calls)

     Called by c_bands:
     init_us_2    :      0.88s CPU      0.90s WALL (    1584 calls)
     cegterg      :     60.42s CPU     55.27s WALL (     720 calls)

     Called by *egterg:
     h_psi        :     48.49s CPU     46.94s WALL (    2451 calls)
     s_psi        :      2.19s CPU      1.26s WALL (    2451 calls)
     g_psi        :      0.32s CPU      0.32s WALL (    1683 calls)
     cdiaghg      :      2.43s CPU      2.47s WALL (    2403 calls)

     Called by h_psi:
     add_vuspsi   :      2.55s CPU      1.48s WALL (    2451 calls)

     General routines
     calbec       :      3.43s CPU      1.92s WALL (    3267 calls)
     fft          :      0.55s CPU      0.56s WALL (     530 calls)
     ffts         :      0.04s CPU      0.05s WALL (      62 calls)
     fftw         :     46.35s CPU     46.98s WALL (   91220 calls)
     interpolate  :      0.12s CPU      0.13s WALL (      62 calls)
     davcio       :      0.00s CPU      0.02s WALL (      48 calls)


     PAW routines
     PAW_pot      :     15.26s CPU     15.74s WALL (      16 calls)
     PAW_symme    :      0.02s CPU      0.02s WALL (      31 calls)

     PWSCF        :  1m36.95s CPU     1m32.38s WALL


   This run was terminated on:  19: 2:23  11May2015            

=------------------------------------------------------------------------------=
   JOB DONE.
=------------------------------------------------------------------------------=
