
     Program PWSCF v.5.1.2 starts on 11May2015 at 19:36:46 

     This program is part of the open-source Quantum ESPRESSO suite
     for quantum simulation of materials; please cite
         "P. Giannozzi et al., J. Phys.:Condens. Matter 21 395502 (2009);
          URL http://www.quantum-espresso.org", 
     in publications or presentations arising from this work. More details at
     http://www.quantum-espresso.org/quote

     Serial version
     Reading input from Fe_HCP_5.38_174_8_4.pw.in

     Current dimensions of program PWSCF are:
     Max number of different atomic species (ntypx) = 10
     Max number of k-points (npk) =  40000
     Max angular momentum in pseudopotentials (lmaxx) =  3
               file Fe.pbe-spn-kjpaw_psl.0.2.1.UPF: wavefunction(s)  3D renormalized

     G-vector sticks info
     --------------------
     sticks:   dense  smooth     PW     G-vecs:    dense   smooth      PW
     Sum         499     397    121                15701    11155    1955

     Generating pointlists ...
     new r_m :   0.4125 (alat units)  2.2193 (a.u.) for type    1


     bravais-lattice index     =            4
     lattice parameter (alat)  =       5.3800  a.u.
     unit-cell volume          =     234.6533 (a.u.)^3
     number of atoms/cell      =            2
     number of atomic types    =            1
     number of electrons       =        32.00
     number of Kohn-Sham states=           20
     kinetic-energy cutoff     =      50.0000  Ry
     charge density cutoff     =     250.0000  Ry
     convergence threshold     =      1.0E-08
     mixing beta               =       0.7000
     number of iterations used =            8  plain     mixing
     Exchange-correlation      =  SLA  PW   PBX  PBC ( 1  4  3  4 0 0)

     celldm(1)=   5.380000  celldm(2)=   0.000000  celldm(3)=   1.740000
     celldm(4)=   0.000000  celldm(5)=   0.000000  celldm(6)=   0.000000

     crystal axes: (cart. coord. in units of alat)
               a(1) = (   1.000000   0.000000   0.000000 )  
               a(2) = (  -0.500000   0.866025   0.000000 )  
               a(3) = (   0.000000   0.000000   1.740000 )  

     reciprocal axes: (cart. coord. in units 2 pi/alat)
               b(1) = (  1.000000  0.577350 -0.000000 )  
               b(2) = (  0.000000  1.154701  0.000000 )  
               b(3) = (  0.000000 -0.000000  0.574713 )  


     PseudoPot. # 1 for Fe read from file:
     ./Fe.pbe-spn-kjpaw_psl.0.2.1.UPF
     MD5 check sum: a0a08122d52b112de96d1da1d7dd020f
     Pseudo is Projector augmented-wave + core cor, Zval = 16.0
     Generated using "atomic" code by A. Dal Corso  v.5.0.2 svn rev. 9415
     Shape of augmentation charge: PSQ
     Using radial grid of 1191 points,  6 beta functions with: 
                l(1) =   0
                l(2) =   0
                l(3) =   1
                l(4) =   1
                l(5) =   2
                l(6) =   2
     Q(r) pseudized with 0 coefficients 


     atomic species   valence    mass     pseudopotential
        Fe            16.00    55.85000     Fe( 1.00)

     Starting magnetic structure 
     atomic species   magnetization
        Fe           0.700

     24 Sym. Ops., with inversion, found (12 have fractional translation)



   Cartesian axes

     site n.     atom                  positions (alat units)
         1           Fe  tau(   1) = (  -0.0000000   0.5773503   0.4350000  )
         2           Fe  tau(   2) = (   0.5000000   0.2886751   1.3050000  )

     number of k points=    60  Marzari-Vanderbilt smearing, width (Ry)=  0.0250
                       cart. coord. in units 2pi/alat
        k(    1) = (   0.0000000   0.0000000   0.0000000), wk =   0.0039062
        k(    2) = (   0.0000000   0.0000000   0.1436782), wk =   0.0078125
        k(    3) = (   0.0000000   0.0000000  -0.2873563), wk =   0.0039062
        k(    4) = (   0.0000000   0.1443376   0.0000000), wk =   0.0234375
        k(    5) = (   0.0000000   0.1443376   0.1436782), wk =   0.0468750
        k(    6) = (   0.0000000   0.1443376  -0.2873563), wk =   0.0234375
        k(    7) = (   0.0000000   0.2886751   0.0000000), wk =   0.0234375
        k(    8) = (   0.0000000   0.2886751   0.1436782), wk =   0.0468750
        k(    9) = (   0.0000000   0.2886751  -0.2873563), wk =   0.0234375
        k(   10) = (   0.0000000   0.4330127   0.0000000), wk =   0.0234375
        k(   11) = (   0.0000000   0.4330127   0.1436782), wk =   0.0468750
        k(   12) = (   0.0000000   0.4330127  -0.2873563), wk =   0.0234375
        k(   13) = (   0.0000000  -0.5773503   0.0000000), wk =   0.0117188
        k(   14) = (   0.0000000  -0.5773503   0.1436782), wk =   0.0234375
        k(   15) = (   0.0000000  -0.5773503  -0.2873563), wk =   0.0117188
        k(   16) = (   0.1250000   0.2165064   0.0000000), wk =   0.0234375
        k(   17) = (   0.1250000   0.2165064   0.1436782), wk =   0.0468750
        k(   18) = (   0.1250000   0.2165064  -0.2873563), wk =   0.0234375
        k(   19) = (   0.1250000   0.3608439   0.0000000), wk =   0.0468750
        k(   20) = (   0.1250000   0.3608439   0.1436782), wk =   0.0937500
        k(   21) = (   0.1250000   0.3608439  -0.2873563), wk =   0.0468750
        k(   22) = (   0.1250000   0.5051815   0.0000000), wk =   0.0468750
        k(   23) = (   0.1250000   0.5051815   0.1436782), wk =   0.0937500
        k(   24) = (   0.1250000   0.5051815  -0.2873563), wk =   0.0468750
        k(   25) = (   0.2500000   0.4330127   0.0000000), wk =   0.0234375
        k(   26) = (   0.2500000   0.4330127   0.1436782), wk =   0.0468750
        k(   27) = (   0.2500000   0.4330127  -0.2873563), wk =   0.0234375
        k(   28) = (   0.2500000   0.5773503   0.0000000), wk =   0.0234375
        k(   29) = (   0.2500000   0.5773503   0.1436782), wk =   0.0468750
        k(   30) = (   0.2500000   0.5773503  -0.2873563), wk =   0.0234375
        k(   31) = (   0.0000000   0.0000000   0.0000000), wk =   0.0039062
        k(   32) = (   0.0000000   0.0000000   0.1436782), wk =   0.0078125
        k(   33) = (   0.0000000   0.0000000  -0.2873563), wk =   0.0039062
        k(   34) = (   0.0000000   0.1443376   0.0000000), wk =   0.0234375
        k(   35) = (   0.0000000   0.1443376   0.1436782), wk =   0.0468750
        k(   36) = (   0.0000000   0.1443376  -0.2873563), wk =   0.0234375
        k(   37) = (   0.0000000   0.2886751   0.0000000), wk =   0.0234375
        k(   38) = (   0.0000000   0.2886751   0.1436782), wk =   0.0468750
        k(   39) = (   0.0000000   0.2886751  -0.2873563), wk =   0.0234375
        k(   40) = (   0.0000000   0.4330127   0.0000000), wk =   0.0234375
        k(   41) = (   0.0000000   0.4330127   0.1436782), wk =   0.0468750
        k(   42) = (   0.0000000   0.4330127  -0.2873563), wk =   0.0234375
        k(   43) = (   0.0000000  -0.5773503   0.0000000), wk =   0.0117188
        k(   44) = (   0.0000000  -0.5773503   0.1436782), wk =   0.0234375
        k(   45) = (   0.0000000  -0.5773503  -0.2873563), wk =   0.0117188
        k(   46) = (   0.1250000   0.2165064   0.0000000), wk =   0.0234375
        k(   47) = (   0.1250000   0.2165064   0.1436782), wk =   0.0468750
        k(   48) = (   0.1250000   0.2165064  -0.2873563), wk =   0.0234375
        k(   49) = (   0.1250000   0.3608439   0.0000000), wk =   0.0468750
        k(   50) = (   0.1250000   0.3608439   0.1436782), wk =   0.0937500
        k(   51) = (   0.1250000   0.3608439  -0.2873563), wk =   0.0468750
        k(   52) = (   0.1250000   0.5051815   0.0000000), wk =   0.0468750
        k(   53) = (   0.1250000   0.5051815   0.1436782), wk =   0.0937500
        k(   54) = (   0.1250000   0.5051815  -0.2873563), wk =   0.0468750
        k(   55) = (   0.2500000   0.4330127   0.0000000), wk =   0.0234375
        k(   56) = (   0.2500000   0.4330127   0.1436782), wk =   0.0468750
        k(   57) = (   0.2500000   0.4330127  -0.2873563), wk =   0.0234375
        k(   58) = (   0.2500000   0.5773503   0.0000000), wk =   0.0234375
        k(   59) = (   0.2500000   0.5773503   0.1436782), wk =   0.0468750
        k(   60) = (   0.2500000   0.5773503  -0.2873563), wk =   0.0234375

     Dense  grid:    15701 G-vectors     FFT dimensions: (  27,  27,  48)

     Smooth grid:    11155 G-vectors     FFT dimensions: (  25,  25,  45)

     Largest allocated arrays     est. size (Mb)     dimensions
        Kohn-Sham Wavefunctions         0.43 Mb     (    1418,   20)
        NL pseudopotentials             0.78 Mb     (    1418,   36)
        Each V/rho on FFT grid          1.07 Mb     (   34992,   2)
        Each G-vector array             0.12 Mb     (   15701)
        G-vector shells                 0.01 Mb     (     823)
     Largest temporary arrays     est. size (Mb)     dimensions
        Auxiliary wavefunctions         1.73 Mb     (    1418,   80)
        Each subspace H/S matrix        0.10 Mb     (      80,   80)
        Each <psi_i|beta_j> matrix      0.01 Mb     (      36,   20)
        Arrays for rho mixing           4.27 Mb     (   34992,    8)

     Check: negative/imaginary core charge=   -0.000324    0.000000

     Initial potential from superposition of free atoms

     starting charge   31.99912, renormalised to   32.00000
     Starting wfc are   26 randomized atomic wfcs

     total cpu time spent up to now is        5.8 secs

     Self-consistent Calculation

     iteration #  1     ecut=    50.00 Ry     beta=0.70
     Davidson diagonalization with overlap
     ethr =  1.00E-02,  avg # of iterations =  2.0

     negative rho (up, down):  0.000E+00 1.057E-03

     Magnetic moment per site:
     atom:    1    charge:   14.5891    magn:    5.9343    constr:    0.0000
     atom:    2    charge:   14.5891    magn:    5.9343    constr:    0.0000

     total cpu time spent up to now is       14.1 secs

     total energy              =    -657.96887381 Ry
     Harris-Foulkes estimate   =    -656.24535734 Ry
     estimated scf accuracy    <       2.84545451 Ry

     total magnetization       =     8.00 Bohr mag/cell
     absolute magnetization    =     8.24 Bohr mag/cell

     iteration #  2     ecut=    50.00 Ry     beta=0.70
     Davidson diagonalization with overlap
     ethr =  8.89E-03,  avg # of iterations =  1.6

     negative rho (up, down):  0.000E+00 1.042E-03

     Magnetic moment per site:
     atom:    1    charge:   14.8142    magn:    4.0009    constr:    0.0000
     atom:    2    charge:   14.8142    magn:    4.0009    constr:    0.0000

     total cpu time spent up to now is       21.1 secs

     total energy              =    -658.15394445 Ry
     Harris-Foulkes estimate   =    -658.18173061 Ry
     estimated scf accuracy    <       0.81637737 Ry

     total magnetization       =     6.59 Bohr mag/cell
     absolute magnetization    =     6.86 Bohr mag/cell

     iteration #  3     ecut=    50.00 Ry     beta=0.70
     Davidson diagonalization with overlap
     ethr =  2.55E-03,  avg # of iterations =  3.0

     negative rho (up, down):  0.000E+00 1.221E-03

     Magnetic moment per site:
     atom:    1    charge:   14.6990    magn:    3.0633    constr:    0.0000
     atom:    2    charge:   14.6990    magn:    3.0633    constr:    0.0000

     total cpu time spent up to now is       30.6 secs

     total energy              =    -658.18377139 Ry
     Harris-Foulkes estimate   =    -658.64988022 Ry
     estimated scf accuracy    <       1.28885150 Ry

     total magnetization       =     6.71 Bohr mag/cell
     absolute magnetization    =     6.96 Bohr mag/cell

     iteration #  4     ecut=    50.00 Ry     beta=0.70
     Davidson diagonalization with overlap
     ethr =  2.55E-03,  avg # of iterations =  2.7

     negative rho (up, down):  0.000E+00 9.848E-04

     Magnetic moment per site:
     atom:    1    charge:   14.7618    magn:    2.9640    constr:    0.0000
     atom:    2    charge:   14.7618    magn:    2.9640    constr:    0.0000

     total cpu time spent up to now is       39.1 secs

     total energy              =    -658.40879551 Ry
     Harris-Foulkes estimate   =    -658.40910908 Ry
     estimated scf accuracy    <       0.00734115 Ry

     total magnetization       =     5.84 Bohr mag/cell
     absolute magnetization    =     6.22 Bohr mag/cell

     iteration #  5     ecut=    50.00 Ry     beta=0.70
     Davidson diagonalization with overlap
     ethr =  2.29E-05,  avg # of iterations =  3.1

     negative rho (up, down):  0.000E+00 9.992E-04

     Magnetic moment per site:
     atom:    1    charge:   14.7481    magn:    2.9763    constr:    0.0000
     atom:    2    charge:   14.7481    magn:    2.9763    constr:    0.0000

     total cpu time spent up to now is       51.1 secs

     total energy              =    -658.41629930 Ry
     Harris-Foulkes estimate   =    -658.41517452 Ry
     estimated scf accuracy    <       0.00082592 Ry

     total magnetization       =     5.79 Bohr mag/cell
     absolute magnetization    =     6.15 Bohr mag/cell

     iteration #  6     ecut=    50.00 Ry     beta=0.70
     Davidson diagonalization with overlap
     ethr =  2.58E-06,  avg # of iterations =  2.2

     negative rho (up, down):  0.000E+00 1.005E-03

     Magnetic moment per site:
     atom:    1    charge:   14.7478    magn:    2.9801    constr:    0.0000
     atom:    2    charge:   14.7478    magn:    2.9801    constr:    0.0000

     total cpu time spent up to now is       58.9 secs

     total energy              =    -658.41620289 Ry
     Harris-Foulkes estimate   =    -658.41658810 Ry
     estimated scf accuracy    <       0.00062031 Ry

     total magnetization       =     5.78 Bohr mag/cell
     absolute magnetization    =     6.13 Bohr mag/cell

     iteration #  7     ecut=    50.00 Ry     beta=0.70
     Davidson diagonalization with overlap
     ethr =  1.94E-06,  avg # of iterations =  1.3

     negative rho (up, down):  0.000E+00 9.560E-04

     Magnetic moment per site:
     atom:    1    charge:   14.7474    magn:    2.9603    constr:    0.0000
     atom:    2    charge:   14.7474    magn:    2.9603    constr:    0.0000

     total cpu time spent up to now is       65.5 secs

     total energy              =    -658.41735145 Ry
     Harris-Foulkes estimate   =    -658.41623108 Ry
     estimated scf accuracy    <       0.00116932 Ry

     total magnetization       =     5.78 Bohr mag/cell
     absolute magnetization    =     6.13 Bohr mag/cell

     iteration #  8     ecut=    50.00 Ry     beta=0.70
     Davidson diagonalization with overlap
     ethr =  1.94E-06,  avg # of iterations =  2.5

     negative rho (up, down):  0.000E+00 9.655E-04

     Magnetic moment per site:
     atom:    1    charge:   14.7495    magn:    2.9623    constr:    0.0000
     atom:    2    charge:   14.7495    magn:    2.9623    constr:    0.0000

     total cpu time spent up to now is       75.0 secs

     total energy              =    -658.41760550 Ry
     Harris-Foulkes estimate   =    -658.41778057 Ry
     estimated scf accuracy    <       0.00021141 Ry

     total magnetization       =     5.75 Bohr mag/cell
     absolute magnetization    =     6.09 Bohr mag/cell

     iteration #  9     ecut=    50.00 Ry     beta=0.70
     Davidson diagonalization with overlap
     ethr =  6.61E-07,  avg # of iterations =  1.7

     negative rho (up, down):  0.000E+00 9.553E-04

     Magnetic moment per site:
     atom:    1    charge:   14.7501    magn:    2.9512    constr:    0.0000
     atom:    2    charge:   14.7501    magn:    2.9512    constr:    0.0000

     total cpu time spent up to now is       83.1 secs

     total energy              =    -658.41796231 Ry
     Harris-Foulkes estimate   =    -658.41762100 Ry
     estimated scf accuracy    <       0.00051345 Ry

     total magnetization       =     5.75 Bohr mag/cell
     absolute magnetization    =     6.09 Bohr mag/cell

     iteration # 10     ecut=    50.00 Ry     beta=0.70
     Davidson diagonalization with overlap
     ethr =  6.61E-07,  avg # of iterations =  2.2

     negative rho (up, down):  0.000E+00 9.491E-04

     Magnetic moment per site:
     atom:    1    charge:   14.7506    magn:    2.9449    constr:    0.0000
     atom:    2    charge:   14.7506    magn:    2.9449    constr:    0.0000

     total cpu time spent up to now is       90.3 secs

     total energy              =    -658.41811496 Ry
     Harris-Foulkes estimate   =    -658.41802608 Ry
     estimated scf accuracy    <       0.00018293 Ry

     total magnetization       =     5.74 Bohr mag/cell
     absolute magnetization    =     6.07 Bohr mag/cell

     iteration # 11     ecut=    50.00 Ry     beta=0.70
     Davidson diagonalization with overlap
     ethr =  5.72E-07,  avg # of iterations =  1.7

     negative rho (up, down):  0.000E+00 9.414E-04

     Magnetic moment per site:
     atom:    1    charge:   14.7513    magn:    2.9370    constr:    0.0000
     atom:    2    charge:   14.7513    magn:    2.9370    constr:    0.0000

     total cpu time spent up to now is       96.8 secs

     total energy              =    -658.41818563 Ry
     Harris-Foulkes estimate   =    -658.41813829 Ry
     estimated scf accuracy    <       0.00008639 Ry

     total magnetization       =     5.73 Bohr mag/cell
     absolute magnetization    =     6.06 Bohr mag/cell

     iteration # 12     ecut=    50.00 Ry     beta=0.70
     Davidson diagonalization with overlap
     ethr =  2.70E-07,  avg # of iterations =  2.4

     negative rho (up, down):  0.000E+00 9.324E-04

     Magnetic moment per site:
     atom:    1    charge:   14.7523    magn:    2.9272    constr:    0.0000
     atom:    2    charge:   14.7523    magn:    2.9272    constr:    0.0000

     total cpu time spent up to now is      103.8 secs

     total energy              =    -658.41813430 Ry
     Harris-Foulkes estimate   =    -658.41821141 Ry
     estimated scf accuracy    <       0.00001288 Ry

     total magnetization       =     5.73 Bohr mag/cell
     absolute magnetization    =     6.05 Bohr mag/cell

     iteration # 13     ecut=    50.00 Ry     beta=0.70
     Davidson diagonalization with overlap
     ethr =  4.02E-08,  avg # of iterations =  4.0

     negative rho (up, down):  0.000E+00 9.368E-04

     Magnetic moment per site:
     atom:    1    charge:   14.7518    magn:    2.9324    constr:    0.0000
     atom:    2    charge:   14.7518    magn:    2.9324    constr:    0.0000

     total cpu time spent up to now is      113.3 secs

     total energy              =    -658.41823541 Ry
     Harris-Foulkes estimate   =    -658.41816968 Ry
     estimated scf accuracy    <       0.00001382 Ry

     total magnetization       =     5.72 Bohr mag/cell
     absolute magnetization    =     6.03 Bohr mag/cell

     iteration # 14     ecut=    50.00 Ry     beta=0.70
     Davidson diagonalization with overlap
     ethr =  4.02E-08,  avg # of iterations =  2.3

     negative rho (up, down):  0.000E+00 9.369E-04

     Magnetic moment per site:
     atom:    1    charge:   14.7518    magn:    2.9326    constr:    0.0000
     atom:    2    charge:   14.7518    magn:    2.9326    constr:    0.0000

     total cpu time spent up to now is      120.9 secs

     total energy              =    -658.41823859 Ry
     Harris-Foulkes estimate   =    -658.41824026 Ry
     estimated scf accuracy    <       0.00000324 Ry

     total magnetization       =     5.72 Bohr mag/cell
     absolute magnetization    =     6.04 Bohr mag/cell

     iteration # 15     ecut=    50.00 Ry     beta=0.70
     Davidson diagonalization with overlap
     ethr =  1.01E-08,  avg # of iterations =  1.0

     negative rho (up, down):  0.000E+00 9.353E-04

     Magnetic moment per site:
     atom:    1    charge:   14.7520    magn:    2.9307    constr:    0.0000
     atom:    2    charge:   14.7520    magn:    2.9307    constr:    0.0000

     total cpu time spent up to now is      127.2 secs

     total energy              =    -658.41824192 Ry
     Harris-Foulkes estimate   =    -658.41823866 Ry
     estimated scf accuracy    <       0.00000448 Ry

     total magnetization       =     5.72 Bohr mag/cell
     absolute magnetization    =     6.04 Bohr mag/cell

     iteration # 16     ecut=    50.00 Ry     beta=0.70
     Davidson diagonalization with overlap
     ethr =  1.01E-08,  avg # of iterations =  2.1

     negative rho (up, down):  0.000E+00 9.352E-04

     Magnetic moment per site:
     atom:    1    charge:   14.7520    magn:    2.9306    constr:    0.0000
     atom:    2    charge:   14.7520    magn:    2.9306    constr:    0.0000

     total cpu time spent up to now is      133.8 secs

     total energy              =    -658.41824305 Ry
     Harris-Foulkes estimate   =    -658.41824293 Ry
     estimated scf accuracy    <       0.00000037 Ry

     total magnetization       =     5.72 Bohr mag/cell
     absolute magnetization    =     6.04 Bohr mag/cell

     iteration # 17     ecut=    50.00 Ry     beta=0.70
     Davidson diagonalization with overlap
     ethr =  1.15E-09,  avg # of iterations =  1.9

     negative rho (up, down):  0.000E+00 9.346E-04

     Magnetic moment per site:
     atom:    1    charge:   14.7521    magn:    2.9299    constr:    0.0000
     atom:    2    charge:   14.7521    magn:    2.9299    constr:    0.0000

     total cpu time spent up to now is      140.4 secs

     total energy              =    -658.41824319 Ry
     Harris-Foulkes estimate   =    -658.41824308 Ry
     estimated scf accuracy    <       0.00000040 Ry

     total magnetization       =     5.72 Bohr mag/cell
     absolute magnetization    =     6.04 Bohr mag/cell

     iteration # 18     ecut=    50.00 Ry     beta=0.70
     Davidson diagonalization with overlap
     ethr =  1.15E-09,  avg # of iterations =  2.5

     negative rho (up, down):  0.000E+00 9.345E-04

     Magnetic moment per site:
     atom:    1    charge:   14.7521    magn:    2.9298    constr:    0.0000
     atom:    2    charge:   14.7521    magn:    2.9298    constr:    0.0000

     total cpu time spent up to now is      147.8 secs

     End of self-consistent calculation

 ------ SPIN UP ------------


          k = 0.0000 0.0000 0.0000 (  1377 PWs)   bands (ev):

   -77.4545 -77.4474 -43.5231 -43.5231 -43.5144 -43.5144 -43.4099 -43.3407
     4.1752   7.3136   8.6610   8.6610   8.7843   8.7843   8.8325   8.8325
     8.9318   9.2880   9.2880  10.4868

          k = 0.0000 0.0000 0.1437 (  1377 PWs)   bands (ev):

   -77.4536 -77.4483 -43.5216 -43.5216 -43.5158 -43.5158 -43.3993 -43.3520
     4.5779   6.9353   8.6018   8.6018   8.7181   8.7181   8.8758   8.9777
     8.9777   9.2711   9.2711   9.3390

          k = 0.0000 0.0000-0.2874 (  1390 PWs)   bands (ev):

   -77.4511 -77.4511 -43.5188 -43.5188 -43.5188 -43.5188 -43.3766 -43.3766
     5.6864   5.6864   8.6166   8.6166   8.6166   8.6166   8.8253   8.8253
     9.1692   9.1692   9.1692   9.1692

          k = 0.0000 0.1443 0.0000 (  1379 PWs)   bands (ev):

   -77.4533 -77.4461 -43.5348 -43.5269 -43.5261 -43.5168 -43.4059 -43.3420
     4.5864   7.5758   8.5281   8.5727   8.7033   8.7593   8.8146   8.8320
     8.9260   9.0732   9.3067  11.5067

          k = 0.0000 0.1443 0.1437 (  1390 PWs)   bands (ev):

   -77.4523 -77.4474 -43.5336 -43.5282 -43.5253 -43.5185 -43.3967 -43.3518
     4.9768   7.2307   8.4257   8.5084   8.6910   8.7080   8.8194   8.8401
     8.9891   9.1488   9.2858  10.1767

          k = 0.0000 0.1443-0.2874 (  1400 PWs)   bands (ev):

   -77.4500 -77.4500 -43.5313 -43.5313 -43.5220 -43.5220 -43.3745 -43.3745
     6.0468   6.0468   8.4400   8.4400   8.7235   8.7235   8.7254   8.7254
     9.1773   9.1773   9.4218   9.4218

          k = 0.0000 0.2887 0.0000 (  1396 PWs)   bands (ev):

   -77.4495 -77.4440 -43.5636 -43.5555 -43.5347 -43.5232 -43.3962 -43.3454
     5.7246   7.8673   7.9271   8.4581   8.6021   8.6064   8.7108   9.2082
     9.2847   9.3292   9.4444  13.3165

          k = 0.0000 0.2887 0.1437 (  1404 PWs)   bands (ev):

   -77.4487 -77.4449 -43.5629 -43.5567 -43.5333 -43.5250 -43.3888 -43.3530
     6.0461   7.5901   8.0383   8.3427   8.6778   8.7100   8.7672   9.1053
     9.2584   9.3767   9.4574  11.1809

          k = 0.0000 0.2887-0.2874 (  1374 PWs)   bands (ev):

   -77.4464 -77.4464 -43.5596 -43.5596 -43.5286 -43.5286 -43.3698 -43.3698
     6.8431   6.8431   8.2237   8.2237   8.7919   8.7919   8.8685   8.8685
     9.3355   9.3355   9.8176   9.8176

          k = 0.0000 0.4330 0.0000 (  1402 PWs)   bands (ev):

   -77.4454 -77.4419 -43.5920 -43.5835 -43.5426 -43.5298 -43.3842 -43.3505
     7.0060   7.5334   7.6502   8.4070   8.4715   8.7025   9.1809   9.3350
     9.6329   9.6790  10.2079  14.8796

          k = 0.0000 0.4330 0.1437 (  1404 PWs)   bands (ev):

   -77.4449 -77.4423 -43.5913 -43.5856 -43.5407 -43.5316 -43.3788 -43.3550
     7.0043   7.4685   7.8439   8.1082   8.5809   9.1631   9.1811   9.4513
     9.6463   9.6877  10.0618  12.5476

          k = 0.0000 0.4330-0.2874 (  1396 PWs)   bands (ev):

   -77.4435 -77.4435 -43.5888 -43.5888 -43.5362 -43.5362 -43.3660 -43.3660
     7.1784   7.1784   8.0289   8.0289   8.8626   8.8626   9.6538   9.6538
     9.6742   9.6742  10.5789  10.5789

          k = 0.0000-0.5774 0.0000 (  1400 PWs)   bands (ev):

   -77.4435 -77.4410 -43.6040 -43.5954 -43.5454 -43.5320 -43.3774 -43.3547
     7.3841   7.4076   7.4930   8.3275   8.4189   9.2218   9.2996   9.3346
     9.8110   9.8639  11.6588  12.8238

          k = 0.0000-0.5774 0.1437 (  1400 PWs)   bands (ev):

   -77.4432 -77.4413 -43.6034 -43.5967 -43.5439 -43.5342 -43.3734 -43.3574
     7.1232   7.4421   7.8153   8.0008   8.5387   9.1828   9.3713   9.8210
     9.8572   9.8700  11.5679  12.6657

          k = 0.0000-0.5774-0.2874 (  1396 PWs)   bands (ev):

   -77.4421 -77.4421 -43.6007 -43.6007 -43.5390 -43.5390 -43.3643 -43.3643
     7.1880   7.1880   7.9456   7.9456   8.8455   8.8455   9.8402   9.8402
     9.9036   9.9036  12.0044  12.0044

          k = 0.1250 0.2165 0.0000 (  1402 PWs)   bands (ev):

   -77.4509 -77.4446 -43.5530 -43.5482 -43.5315 -43.5240 -43.3993 -43.3447
     5.3686   7.9538   8.1070   8.3228   8.5239   8.6126   8.7769   9.1051
     9.1591   9.3010   9.3803  12.7910

          k = 0.1250 0.2165 0.1437 (  1398 PWs)   bands (ev):

   -77.4499 -77.4455 -43.5522 -43.5486 -43.5307 -43.5253 -43.3910 -43.3524
     5.7231   7.6181   8.1494   8.3261   8.5640   8.6505   8.7463   9.0176
     9.2294   9.3120   9.4073  10.9052

          k = 0.1250 0.2165-0.2874 (  1396 PWs)   bands (ev):

   -77.4477 -77.4477 -43.5502 -43.5502 -43.5286 -43.5286 -43.3714 -43.3714
     6.6537   6.6537   8.2915   8.2915   8.6008   8.6008   8.8486   8.8486
     9.3305   9.3305   9.7098   9.7098

          k = 0.1250 0.3608 0.0000 (  1402 PWs)   bands (ev):

   -77.4466 -77.4424 -43.5784 -43.5724 -43.5435 -43.5330 -43.3882 -43.3488
     6.6920   7.6892   7.9216   8.3409   8.3462   8.6055   8.7992   9.2844
     9.4048   9.6712  10.0112  14.7347

          k = 0.1250 0.3608 0.1437 (  1395 PWs)   bands (ev):

   -77.4460 -77.4429 -43.5777 -43.5737 -43.5418 -43.5346 -43.3818 -43.3540
     6.8649   7.5904   7.9968   8.2370   8.5840   8.6540   8.8121   9.1187
     9.5061   9.7405   9.9844  12.1045

          k = 0.1250 0.3608-0.2874 (  1390 PWs)   bands (ev):

   -77.4443 -77.4443 -43.5760 -43.5760 -43.5384 -43.5384 -43.3672 -43.3672
     7.2466   7.2466   8.1789   8.1789   8.7133   8.7133   8.8991   8.8991
     9.8142   9.8142  10.3341  10.3341

          k = 0.1250 0.5052 0.0000 (  1414 PWs)   bands (ev):

   -77.4437 -77.4412 -43.5975 -43.5893 -43.5519 -43.5393 -43.3777 -43.3548
     7.4819   7.5032   7.6922   8.2993   8.4089   8.7753   9.1243   9.2722
     9.7320   9.9411  11.3052  14.1513

          k = 0.1250 0.5052 0.1437 (  1407 PWs)   bands (ev):

   -77.4433 -77.4415 -43.5969 -43.5909 -43.5501 -43.5412 -43.3734 -43.3573
     7.2640   7.6028   7.9066   8.0631   8.4249   9.0388   9.2109   9.2361
     9.7661  10.0210  11.3765  13.5153

          k = 0.1250 0.5052-0.2874 (  1402 PWs)   bands (ev):

   -77.4422 -77.4422 -43.5943 -43.5943 -43.5458 -43.5458 -43.3644 -43.3644
     7.3389   7.3389   8.0593   8.0593   8.6870   8.6870   9.3678   9.3678
     9.9728   9.9728  12.0548  12.0548

          k = 0.2500 0.4330 0.0000 (  1414 PWs)   bands (ev):

   -77.4437 -77.4413 -43.5865 -43.5836 -43.5580 -43.5496 -43.3778 -43.3549
     7.5754   7.7528   8.0527   8.1576   8.2082   8.4492   8.9024   9.2035
     9.6124   9.9946  11.2087  16.0723

          k = 0.2500 0.4330 0.1437 (  1410 PWs)   bands (ev):

   -77.4432 -77.4416 -43.5864 -43.5845 -43.5574 -43.5511 -43.3733 -43.3572
     7.5702   7.6273   8.0547   8.2631   8.3714   8.5154   8.8919   9.0533
     9.7237  10.0383  11.3478  13.8719

          k = 0.2500 0.4330-0.2874 (  1404 PWs)   bands (ev):

   -77.4423 -77.4423 -43.5854 -43.5854 -43.5548 -43.5548 -43.3644 -43.3644
     7.5580   7.5580   8.2044   8.2044   8.5208   8.5208   8.9015   8.9015
     9.9948   9.9948  12.0891  12.0891

          k = 0.2500 0.5774 0.0000 (  1418 PWs)   bands (ev):

   -77.4422 -77.4411 -43.5905 -43.5815 -43.5690 -43.5584 -43.3701 -43.3607
     7.5548   7.9733   7.9897   8.2393   8.2815   8.4100   8.9910   9.1689
     9.8067   9.9702  13.2485  13.7357

          k = 0.2500 0.5774 0.1437 (  1414 PWs)   bands (ev):

   -77.4420 -77.4411 -43.5894 -43.5831 -43.5679 -43.5602 -43.3673 -43.3608
     7.5712   7.9554   8.0342   8.0603   8.3139   8.5984   8.9970   9.0450
     9.8733  10.0180  13.5532  13.8740

          k = 0.2500 0.5774-0.2874 (  1408 PWs)   bands (ev):

   -77.4414 -77.4414 -43.5862 -43.5862 -43.5646 -43.5646 -43.3629 -43.3629
     7.6838   7.6838   8.1447   8.1447   8.4437   8.4437   8.9985   8.9985
    10.0087  10.0087  14.0921  14.0921

 ------ SPIN DOWN ----------


          k = 0.0000 0.0000 0.0000 (  1377 PWs)   bands (ev):

   -74.1079 -74.0996 -40.2254 -40.1991 -40.1991 -40.1892 -40.1892 -40.1449
     4.4505   8.2294  10.4902  10.6249  11.2728  11.2728  11.4427  11.4427
    12.5594  12.5594  13.1633  13.1633

          k = 0.0000 0.0000 0.1437 (  1377 PWs)   bands (ev):

   -74.1069 -74.1007 -40.2133 -40.1974 -40.1974 -40.1907 -40.1907 -40.1576
     4.8538   7.4927  10.2428  10.4006  11.2711  11.2711  11.3944  11.3944
    12.6769  12.6769  13.1014  13.1014

          k = 0.0000 0.0000-0.2874 (  1390 PWs)   bands (ev):

   -74.1040 -74.1040 -40.1943 -40.1943 -40.1943 -40.1943 -40.1862 -40.1862
     5.9882   5.9882  10.2191  10.2191  11.3089  11.3089  11.3089  11.3089
    12.9157  12.9157  12.9157  12.9157

          k = 0.0000 0.1443 0.0000 (  1379 PWs)   bands (ev):

   -74.1063 -74.0982 -40.2207 -40.2129 -40.2038 -40.2028 -40.1921 -40.1463
     4.8642   8.5451  10.4616  10.5465  11.1487  11.3236  11.4576  11.6135
    12.3867  12.4487  13.1945  13.7387

          k = 0.0000 0.1443 0.1437 (  1390 PWs)   bands (ev):

   -74.1052 -74.0996 -40.2160 -40.2063 -40.2051 -40.2016 -40.1939 -40.1570
     5.2605   7.8467  10.1836  10.4714  11.1126  11.2851  11.4503  11.5639
    12.5413  12.5891  13.1090  13.2567

          k = 0.0000 0.1443-0.2874 (  1400 PWs)   bands (ev):

   -74.1025 -74.1025 -40.2106 -40.2106 -40.1979 -40.1979 -40.1820 -40.1820
     6.3779   6.3779  10.2565  10.2565  11.1578  11.1578  11.4811  11.4811
    12.8740  12.8740  12.8819  12.8819

          k = 0.0000 0.2887 0.0000 (  1396 PWs)   bands (ev):

   -74.1020 -74.0956 -40.2467 -40.2374 -40.2126 -40.2093 -40.1994 -40.1501
     6.0428   9.2505  10.2330  10.4934  10.8829  11.3849  11.9412  12.0271
    12.0506  12.2225  13.2310  15.0843

          k = 0.0000 0.2887 0.1437 (  1404 PWs)   bands (ev):

   -74.1010 -74.0967 -40.2475 -40.2398 -40.2109 -40.2015 -40.1989 -40.1579
     6.4140   8.7326  10.0801  10.5557  10.7910  11.1912  11.9046  11.9958
    12.2896  12.4228  13.0989  13.5854

          k = 0.0000 0.2887-0.2874 (  1374 PWs)   bands (ev):

   -74.0985 -74.0985 -40.2446 -40.2446 -40.2058 -40.2058 -40.1764 -40.1764
     7.4433   7.4433  10.3198  10.3198  10.8947  10.8947  11.9216  11.9216
    12.7780  12.7780  12.8201  12.8201

          k = 0.0000 0.4330 0.0000 (  1402 PWs)   bands (ev):

   -74.0972 -74.0931 -40.2804 -40.2704 -40.2218 -40.2070 -40.1952 -40.1560
     7.7168   9.5435  10.1485  10.3285  10.8048  11.6590  12.0264  12.0512
    12.4856  12.5392  13.2410  15.5684

          k = 0.0000 0.4330 0.1437 (  1404 PWs)   bands (ev):

   -74.0966 -74.0937 -40.2807 -40.2736 -40.2197 -40.2091 -40.1877 -40.1603
     7.9901   9.3842  10.0063  10.4879  10.7538  11.4948  12.1459  12.2524
    12.5030  12.5308  13.0610  14.0241

          k = 0.0000 0.4330-0.2874 (  1396 PWs)   bands (ev):

   -74.0951 -74.0951 -40.2786 -40.2786 -40.2144 -40.2144 -40.1721 -40.1721
     8.6870   8.6870  10.2404  10.2404  11.0891  11.0891  12.3821  12.3821
    12.7131  12.7131  12.8327  12.8327

          k = 0.0000-0.5774 0.0000 (  1400 PWs)   bands (ev):

   -74.0950 -74.0922 -40.2944 -40.2842 -40.2252 -40.2097 -40.1872 -40.1609
     8.8735   9.3623  10.1498  10.1717  10.8989  11.4942  11.9507  12.7164
    12.7797  13.0065  13.2406  14.1256

          k = 0.0000-0.5774 0.1437 (  1400 PWs)   bands (ev):

   -74.0947 -74.0925 -40.2947 -40.2869 -40.2234 -40.2122 -40.1815 -40.1631
     8.9555   9.3418  10.0790  10.2856  10.9303  11.8971  12.1075  12.6377
    12.7189  12.7732  13.0210  13.8274

          k = 0.0000-0.5774-0.2874 (  1396 PWs)   bands (ev):

   -74.0936 -74.0936 -40.2924 -40.2924 -40.2177 -40.2177 -40.1702 -40.1702
     9.1605   9.1605  10.1954  10.1954  11.5397  11.5397  12.5139  12.5139
    12.7642  12.7642  12.9972  12.9972

          k = 0.1250 0.2165 0.0000 (  1402 PWs)   bands (ev):

   -74.1034 -74.0964 -40.2340 -40.2288 -40.2130 -40.2090 -40.2002 -40.1491
     5.6623   9.0770  10.2895  10.5132  11.0931  11.1138  11.8099  11.9564
    12.0753  12.3503  13.1875  14.6876

          k = 0.1250 0.2165 0.1437 (  1398 PWs)   bands (ev):

   -74.1024 -74.0974 -40.2352 -40.2300 -40.2082 -40.2029 -40.2002 -40.1573
     6.0436   8.4846  10.1123  10.5417  10.8972  11.1059  11.7774  11.8916
    12.3558  12.4757  13.0718  13.5143

          k = 0.1250 0.2165-0.2874 (  1396 PWs)   bands (ev):

   -74.0999 -74.0999 -40.2334 -40.2334 -40.2057 -40.2057 -40.1780 -40.1780
     7.1121   7.1121  10.3213  10.3213  10.9099  10.9099  11.8097  11.8097
    12.7820  12.7820  12.8589  12.8589

          k = 0.1250 0.3608 0.0000 (  1402 PWs)   bands (ev):

   -74.0986 -74.0938 -40.2642 -40.2575 -40.2227 -40.2108 -40.1999 -40.1539
     7.1237   9.6570  10.2028  10.2877  10.8839  11.4564  11.7416  12.0904
    12.2999  12.5302  13.1651  15.7260

          k = 0.1250 0.3608 0.1437 (  1395 PWs)   bands (ev):

   -74.0979 -74.0944 -40.2647 -40.2598 -40.2213 -40.2129 -40.1908 -40.1590
     7.4520   9.3797  10.0408  10.4244  10.7620  11.1393  12.0042  12.1649
    12.4506  12.5197  13.0324  14.0167

          k = 0.1250 0.3608-0.2874 (  1390 PWs)   bands (ev):

   -74.0961 -74.0961 -40.2636 -40.2636 -40.2175 -40.2175 -40.1730 -40.1730
     8.3414   8.3414  10.3507  10.3507  10.7389  10.7389  12.2185  12.2185
    12.7170  12.7170  12.9422  12.9422

          k = 0.1250 0.5052 0.0000 (  1414 PWs)   bands (ev):

   -74.0951 -74.0923 -40.2868 -40.2771 -40.2327 -40.2182 -40.1874 -40.1609
     8.7102   9.6138  10.1304  10.2318  10.9635  11.5232  11.8525  12.1439
    12.5259  13.1474  13.2280  15.1966

          k = 0.1250 0.5052 0.1437 (  1407 PWs)   bands (ev):

   -74.0947 -74.0926 -40.2870 -40.2799 -40.2310 -40.2206 -40.1811 -40.1628
     8.8834   9.5946  10.0348  10.4278  10.8319  11.4232  12.0088  12.2586
    12.5987  12.8065  13.3300  14.5898

          k = 0.1250 0.5052-0.2874 (  1402 PWs)   bands (ev):

   -74.0936 -74.0936 -40.2849 -40.2849 -40.2262 -40.2262 -40.1698 -40.1698
     9.2770   9.2770  10.2762  10.2762  11.0572  11.0572  12.3081  12.3081
    12.5998  12.5998  13.6318  13.6318

          k = 0.2500 0.4330 0.0000 (  1414 PWs)   bands (ev):

   -74.0951 -74.0923 -40.2740 -40.2703 -40.2400 -40.2303 -40.1875 -40.1609
     8.6001   9.9219   9.9992  10.3282  11.1370  11.5189  11.5906  11.7789
    12.4173  13.0509  13.3446  16.7901

          k = 0.2500 0.4330 0.1437 (  1410 PWs)   bands (ev):

   -74.0947 -74.0927 -40.2745 -40.2724 -40.2398 -40.2325 -40.1809 -40.1625
     8.8400   9.9981  10.1142  10.1410  10.9950  11.0376  11.7223  12.1156
    12.6137  12.6867  13.5100  15.2197

          k = 0.2500 0.4330-0.2874 (  1404 PWs)   bands (ev):

   -74.0936 -74.0936 -40.2744 -40.2744 -40.2372 -40.2372 -40.1694 -40.1694
     9.4424   9.4424  10.3600  10.3600  10.6351  10.6351  12.1211  12.1211
    12.6064  12.6064  13.9418  13.9418

          k = 0.2500 0.5774 0.0000 (  1418 PWs)   bands (ev):

   -74.0933 -74.0920 -40.2783 -40.2679 -40.2530 -40.2406 -40.1786 -40.1676
     9.5126   9.8389   9.9072  10.4552  11.2812  11.4679  11.5370  12.0070
    12.1411  13.0020  14.5868  15.0755

          k = 0.2500 0.5774 0.1437 (  1414 PWs)   bands (ev):

   -74.0931 -74.0922 -40.2778 -40.2708 -40.2524 -40.2432 -40.1740 -40.1665
     9.6665   9.9249  10.0205  10.4698  10.9481  11.0933  11.6895  12.2162
    12.3649  12.6471  14.8747  15.1580

          k = 0.2500 0.5774-0.2874 (  1408 PWs)   bands (ev):

   -74.0926 -74.0926 -40.2752 -40.2752 -40.2488 -40.2488 -40.1677 -40.1677
     9.9231   9.9231  10.4339  10.4339  10.6164  10.6164  12.0698  12.0698
    12.4464  12.4464  15.2528  15.2528

     the Fermi energy is    11.1121 ev

!    total energy              =    -658.41824347 Ry
     Harris-Foulkes estimate   =    -658.41824337 Ry
     estimated scf accuracy    <          6.1E-09 Ry

     total all-electron energy =     -5091.011314 Ry

     The total energy is the sum of the following terms:

     one-electron contribution =    -294.68626626 Ry
     hartree contribution      =     159.85171757 Ry
     xc contribution           =     -69.41947637 Ry
     ewald contribution        =    -301.88510167 Ry
     one-center paw contrib.   =    -152.27879179 Ry
     smearing contrib. (-TS)   =      -0.00032495 Ry

     total magnetization       =     5.72 Bohr mag/cell
     absolute magnetization    =     6.04 Bohr mag/cell

     convergence has been achieved in  18 iterations

     Forces acting on atoms (Ry/au):


     negative rho (up, down):  0.000E+00 9.345E-04
     atom    1 type  1   force =     0.00000000    0.00000000    0.00000000
     atom    2 type  1   force =     0.00000000    0.00000000    0.00000000

     Total force =     0.000000     Total SCF correction =     0.000000


     entering subroutine stress ...


     negative rho (up, down):  0.000E+00 9.345E-04
          total   stress  (Ry/bohr**3)                   (kbar)     P= -286.77
  -0.00209972   0.00000000   0.00000000       -308.88      0.00      0.00
   0.00000000  -0.00209972   0.00000000          0.00   -308.88      0.00
   0.00000000   0.00000000  -0.00164877          0.00      0.00   -242.54


     Writing output data file Fe_hcp.save

     init_run     :      4.74s CPU      5.35s WALL (       1 calls)
     electrons    :    134.72s CPU    142.02s WALL (       1 calls)
     forces       :      0.79s CPU      0.79s WALL (       1 calls)
     stress       :      2.29s CPU      2.65s WALL (       1 calls)

     Called by init_run:
     wfcinit      :      3.02s CPU      3.44s WALL (       1 calls)
     potinit      :      1.06s CPU      1.17s WALL (       1 calls)

     Called by electrons:
     c_bands      :     95.18s CPU     97.58s WALL (      18 calls)
     sum_band     :     17.73s CPU     19.33s WALL (      18 calls)
     v_of_rho     :      1.21s CPU      1.37s WALL (      19 calls)
     newd         :      1.49s CPU      1.74s WALL (      19 calls)
     mix_rho      :      0.20s CPU      0.30s WALL (      18 calls)

     Called by c_bands:
     init_us_2    :      1.38s CPU      1.56s WALL (    2340 calls)
     cegterg      :     91.28s CPU     93.20s WALL (    1080 calls)

     Called by *egterg:
     h_psi        :     73.79s CPU     79.49s WALL (    3540 calls)
     s_psi        :      3.40s CPU      2.24s WALL (    3540 calls)
     g_psi        :      0.41s CPU      0.45s WALL (    2400 calls)
     cdiaghg      :      3.47s CPU      3.90s WALL (    3480 calls)

     Called by h_psi:
     add_vuspsi   :      3.70s CPU      2.45s WALL (    3540 calls)

     General routines
     calbec       :      5.31s CPU      3.38s WALL (    4740 calls)
     fft          :      0.72s CPU      0.81s WALL (     623 calls)
     ffts         :      0.06s CPU      0.06s WALL (      74 calls)
     fftw         :     72.04s CPU     81.06s WALL (  127294 calls)
     interpolate  :      0.16s CPU      0.18s WALL (      74 calls)
     davcio       :      0.00s CPU      0.03s WALL (      60 calls)


     PAW routines
     PAW_pot      :     19.90s CPU     22.77s WALL (      19 calls)
     PAW_symme    :      0.03s CPU      0.03s WALL (      37 calls)

     PWSCF        :  2m23.05s CPU     2m31.51s WALL


   This run was terminated on:  19:39:17  11May2015            

=------------------------------------------------------------------------------=
   JOB DONE.
=------------------------------------------------------------------------------=
