
     Program PWSCF v.5.1.2 starts on 11May2015 at 22:47:20 

     This program is part of the open-source Quantum ESPRESSO suite
     for quantum simulation of materials; please cite
         "P. Giannozzi et al., J. Phys.:Condens. Matter 21 395502 (2009);
          URL http://www.quantum-espresso.org", 
     in publications or presentations arising from this work. More details at
     http://www.quantum-espresso.org/quote

     Serial version
     Reading input from Fe_HCP_5.44_174_10_5.pw.in

     Current dimensions of program PWSCF are:
     Max number of different atomic species (ntypx) = 10
     Max number of k-points (npk) =  40000
     Max angular momentum in pseudopotentials (lmaxx) =  3
               file Fe.pbe-spn-kjpaw_psl.0.2.1.UPF: wavefunction(s)  3D renormalized

     G-vector sticks info
     --------------------
     sticks:   dense  smooth     PW     G-vecs:    dense   smooth      PW
     Sum         511     421    121                16241    11659    1979

     Generating pointlists ...
     new r_m :   0.4125 (alat units)  2.2440 (a.u.) for type    1


     bravais-lattice index     =            4
     lattice parameter (alat)  =       5.4400  a.u.
     unit-cell volume          =     242.5921 (a.u.)^3
     number of atoms/cell      =            2
     number of atomic types    =            1
     number of electrons       =        32.00
     number of Kohn-Sham states=           20
     kinetic-energy cutoff     =      50.0000  Ry
     charge density cutoff     =     250.0000  Ry
     convergence threshold     =      1.0E-08
     mixing beta               =       0.7000
     number of iterations used =            8  plain     mixing
     Exchange-correlation      =  SLA  PW   PBX  PBC ( 1  4  3  4 0 0)

     celldm(1)=   5.440000  celldm(2)=   0.000000  celldm(3)=   1.740000
     celldm(4)=   0.000000  celldm(5)=   0.000000  celldm(6)=   0.000000

     crystal axes: (cart. coord. in units of alat)
               a(1) = (   1.000000   0.000000   0.000000 )  
               a(2) = (  -0.500000   0.866025   0.000000 )  
               a(3) = (   0.000000   0.000000   1.740000 )  

     reciprocal axes: (cart. coord. in units 2 pi/alat)
               b(1) = (  1.000000  0.577350 -0.000000 )  
               b(2) = (  0.000000  1.154701  0.000000 )  
               b(3) = (  0.000000 -0.000000  0.574713 )  


     PseudoPot. # 1 for Fe read from file:
     ./Fe.pbe-spn-kjpaw_psl.0.2.1.UPF
     MD5 check sum: a0a08122d52b112de96d1da1d7dd020f
     Pseudo is Projector augmented-wave + core cor, Zval = 16.0
     Generated using "atomic" code by A. Dal Corso  v.5.0.2 svn rev. 9415
     Shape of augmentation charge: PSQ
     Using radial grid of 1191 points,  6 beta functions with: 
                l(1) =   0
                l(2) =   0
                l(3) =   1
                l(4) =   1
                l(5) =   2
                l(6) =   2
     Q(r) pseudized with 0 coefficients 


     atomic species   valence    mass     pseudopotential
        Fe            16.00    55.85000     Fe( 1.00)

     Starting magnetic structure 
     atomic species   magnetization
        Fe           0.700

     24 Sym. Ops., with inversion, found (12 have fractional translation)



   Cartesian axes

     site n.     atom                  positions (alat units)
         1           Fe  tau(   1) = (  -0.0000000   0.5773503   0.4350000  )
         2           Fe  tau(   2) = (   0.5000000   0.2886751   1.3050000  )

     number of k points=    84  Marzari-Vanderbilt smearing, width (Ry)=  0.0250
                       cart. coord. in units 2pi/alat
        k(    1) = (   0.0000000   0.0000000   0.0000000), wk =   0.0020000
        k(    2) = (   0.0000000   0.0000000   0.1149425), wk =   0.0040000
        k(    3) = (   0.0000000   0.0000000   0.2298851), wk =   0.0040000
        k(    4) = (   0.0000000   0.1154701   0.0000000), wk =   0.0120000
        k(    5) = (   0.0000000   0.1154701   0.1149425), wk =   0.0240000
        k(    6) = (   0.0000000   0.1154701   0.2298851), wk =   0.0240000
        k(    7) = (   0.0000000   0.2309401   0.0000000), wk =   0.0120000
        k(    8) = (   0.0000000   0.2309401   0.1149425), wk =   0.0240000
        k(    9) = (   0.0000000   0.2309401   0.2298851), wk =   0.0240000
        k(   10) = (   0.0000000   0.3464102   0.0000000), wk =   0.0120000
        k(   11) = (   0.0000000   0.3464102   0.1149425), wk =   0.0240000
        k(   12) = (   0.0000000   0.3464102   0.2298851), wk =   0.0240000
        k(   13) = (   0.0000000   0.4618802   0.0000000), wk =   0.0120000
        k(   14) = (   0.0000000   0.4618802   0.1149425), wk =   0.0240000
        k(   15) = (   0.0000000   0.4618802   0.2298851), wk =   0.0240000
        k(   16) = (   0.0000000  -0.5773503   0.0000000), wk =   0.0060000
        k(   17) = (   0.0000000  -0.5773503   0.1149425), wk =   0.0120000
        k(   18) = (   0.0000000  -0.5773503   0.2298851), wk =   0.0120000
        k(   19) = (   0.1000000   0.1732051   0.0000000), wk =   0.0120000
        k(   20) = (   0.1000000   0.1732051   0.1149425), wk =   0.0240000
        k(   21) = (   0.1000000   0.1732051   0.2298851), wk =   0.0240000
        k(   22) = (   0.1000000   0.2886751   0.0000000), wk =   0.0240000
        k(   23) = (   0.1000000   0.2886751   0.1149425), wk =   0.0480000
        k(   24) = (   0.1000000   0.2886751   0.2298851), wk =   0.0480000
        k(   25) = (   0.1000000   0.4041452   0.0000000), wk =   0.0240000
        k(   26) = (   0.1000000   0.4041452   0.1149425), wk =   0.0480000
        k(   27) = (   0.1000000   0.4041452   0.2298851), wk =   0.0480000
        k(   28) = (   0.1000000   0.5196152   0.0000000), wk =   0.0240000
        k(   29) = (   0.1000000   0.5196152   0.1149425), wk =   0.0480000
        k(   30) = (   0.1000000   0.5196152   0.2298851), wk =   0.0480000
        k(   31) = (   0.2000000   0.3464102   0.0000000), wk =   0.0120000
        k(   32) = (   0.2000000   0.3464102   0.1149425), wk =   0.0240000
        k(   33) = (   0.2000000   0.3464102   0.2298851), wk =   0.0240000
        k(   34) = (   0.2000000   0.4618802   0.0000000), wk =   0.0240000
        k(   35) = (   0.2000000   0.4618802   0.1149425), wk =   0.0480000
        k(   36) = (   0.2000000   0.4618802   0.2298851), wk =   0.0480000
        k(   37) = (   0.2000000   0.5773503   0.0000000), wk =   0.0120000
        k(   38) = (   0.2000000   0.5773503   0.1149425), wk =   0.0240000
        k(   39) = (   0.2000000   0.5773503   0.2298851), wk =   0.0240000
        k(   40) = (   0.3000000   0.5196152   0.0000000), wk =   0.0120000
        k(   41) = (   0.3000000   0.5196152   0.1149425), wk =   0.0240000
        k(   42) = (   0.3000000   0.5196152   0.2298851), wk =   0.0240000
        k(   43) = (   0.0000000   0.0000000   0.0000000), wk =   0.0020000
        k(   44) = (   0.0000000   0.0000000   0.1149425), wk =   0.0040000
        k(   45) = (   0.0000000   0.0000000   0.2298851), wk =   0.0040000
        k(   46) = (   0.0000000   0.1154701   0.0000000), wk =   0.0120000
        k(   47) = (   0.0000000   0.1154701   0.1149425), wk =   0.0240000
        k(   48) = (   0.0000000   0.1154701   0.2298851), wk =   0.0240000
        k(   49) = (   0.0000000   0.2309401   0.0000000), wk =   0.0120000
        k(   50) = (   0.0000000   0.2309401   0.1149425), wk =   0.0240000
        k(   51) = (   0.0000000   0.2309401   0.2298851), wk =   0.0240000
        k(   52) = (   0.0000000   0.3464102   0.0000000), wk =   0.0120000
        k(   53) = (   0.0000000   0.3464102   0.1149425), wk =   0.0240000
        k(   54) = (   0.0000000   0.3464102   0.2298851), wk =   0.0240000
        k(   55) = (   0.0000000   0.4618802   0.0000000), wk =   0.0120000
        k(   56) = (   0.0000000   0.4618802   0.1149425), wk =   0.0240000
        k(   57) = (   0.0000000   0.4618802   0.2298851), wk =   0.0240000
        k(   58) = (   0.0000000  -0.5773503   0.0000000), wk =   0.0060000
        k(   59) = (   0.0000000  -0.5773503   0.1149425), wk =   0.0120000
        k(   60) = (   0.0000000  -0.5773503   0.2298851), wk =   0.0120000
        k(   61) = (   0.1000000   0.1732051   0.0000000), wk =   0.0120000
        k(   62) = (   0.1000000   0.1732051   0.1149425), wk =   0.0240000
        k(   63) = (   0.1000000   0.1732051   0.2298851), wk =   0.0240000
        k(   64) = (   0.1000000   0.2886751   0.0000000), wk =   0.0240000
        k(   65) = (   0.1000000   0.2886751   0.1149425), wk =   0.0480000
        k(   66) = (   0.1000000   0.2886751   0.2298851), wk =   0.0480000
        k(   67) = (   0.1000000   0.4041452   0.0000000), wk =   0.0240000
        k(   68) = (   0.1000000   0.4041452   0.1149425), wk =   0.0480000
        k(   69) = (   0.1000000   0.4041452   0.2298851), wk =   0.0480000
        k(   70) = (   0.1000000   0.5196152   0.0000000), wk =   0.0240000
        k(   71) = (   0.1000000   0.5196152   0.1149425), wk =   0.0480000
        k(   72) = (   0.1000000   0.5196152   0.2298851), wk =   0.0480000
        k(   73) = (   0.2000000   0.3464102   0.0000000), wk =   0.0120000
        k(   74) = (   0.2000000   0.3464102   0.1149425), wk =   0.0240000
        k(   75) = (   0.2000000   0.3464102   0.2298851), wk =   0.0240000
        k(   76) = (   0.2000000   0.4618802   0.0000000), wk =   0.0240000
        k(   77) = (   0.2000000   0.4618802   0.1149425), wk =   0.0480000
        k(   78) = (   0.2000000   0.4618802   0.2298851), wk =   0.0480000
        k(   79) = (   0.2000000   0.5773503   0.0000000), wk =   0.0120000
        k(   80) = (   0.2000000   0.5773503   0.1149425), wk =   0.0240000
        k(   81) = (   0.2000000   0.5773503   0.2298851), wk =   0.0240000
        k(   82) = (   0.3000000   0.5196152   0.0000000), wk =   0.0120000
        k(   83) = (   0.3000000   0.5196152   0.1149425), wk =   0.0240000
        k(   84) = (   0.3000000   0.5196152   0.2298851), wk =   0.0240000

     Dense  grid:    16241 G-vectors     FFT dimensions: (  27,  27,  48)

     Smooth grid:    11659 G-vectors     FFT dimensions: (  25,  25,  45)

     Largest allocated arrays     est. size (Mb)     dimensions
        Kohn-Sham Wavefunctions         0.45 Mb     (    1468,   20)
        NL pseudopotentials             0.81 Mb     (    1468,   36)
        Each V/rho on FFT grid          1.07 Mb     (   34992,   2)
        Each G-vector array             0.12 Mb     (   16241)
        G-vector shells                 0.01 Mb     (     845)
     Largest temporary arrays     est. size (Mb)     dimensions
        Auxiliary wavefunctions         1.79 Mb     (    1468,   80)
        Each subspace H/S matrix        0.10 Mb     (      80,   80)
        Each <psi_i|beta_j> matrix      0.01 Mb     (      36,   20)
        Arrays for rho mixing           4.27 Mb     (   34992,    8)

     Check: negative/imaginary core charge=   -0.000315    0.000000

     Initial potential from superposition of free atoms

     starting charge   31.99912, renormalised to   32.00000
     Starting wfc are   26 randomized atomic wfcs

     total cpu time spent up to now is        5.7 secs

     Self-consistent Calculation

     iteration #  1     ecut=    50.00 Ry     beta=0.70
     Davidson diagonalization with overlap
     ethr =  1.00E-02,  avg # of iterations =  2.0

     negative rho (up, down):  0.000E+00 1.110E-03

     Magnetic moment per site:
     atom:    1    charge:   14.6077    magn:    5.9482    constr:    0.0000
     atom:    2    charge:   14.6077    magn:    5.9482    constr:    0.0000

     total cpu time spent up to now is       15.0 secs

     total energy              =    -657.95911730 Ry
     Harris-Foulkes estimate   =    -656.24652246 Ry
     estimated scf accuracy    <       2.83595201 Ry

     total magnetization       =     8.00 Bohr mag/cell
     absolute magnetization    =     8.28 Bohr mag/cell

     iteration #  2     ecut=    50.00 Ry     beta=0.70
     Davidson diagonalization with overlap
     ethr =  8.86E-03,  avg # of iterations =  1.6

     negative rho (up, down):  0.000E+00 1.078E-03

     Magnetic moment per site:
     atom:    1    charge:   14.8360    magn:    4.0455    constr:    0.0000
     atom:    2    charge:   14.8360    magn:    4.0455    constr:    0.0000

     total cpu time spent up to now is       26.7 secs

     total energy              =    -658.12585870 Ry
     Harris-Foulkes estimate   =    -658.17725440 Ry
     estimated scf accuracy    <       0.85312751 Ry

     total magnetization       =     6.56 Bohr mag/cell
     absolute magnetization    =     6.86 Bohr mag/cell

     iteration #  3     ecut=    50.00 Ry     beta=0.70
     Davidson diagonalization with overlap
     ethr =  2.67E-03,  avg # of iterations =  3.1

     negative rho (up, down):  0.000E+00 1.271E-03

     Magnetic moment per site:
     atom:    1    charge:   14.7211    magn:    3.0612    constr:    0.0000
     atom:    2    charge:   14.7211    magn:    3.0612    constr:    0.0000

     total cpu time spent up to now is       41.9 secs

     total energy              =    -658.16468021 Ry
     Harris-Foulkes estimate   =    -658.64803549 Ry
     estimated scf accuracy    <       1.35719052 Ry

     total magnetization       =     6.73 Bohr mag/cell
     absolute magnetization    =     7.01 Bohr mag/cell

     iteration #  4     ecut=    50.00 Ry     beta=0.70
     Davidson diagonalization with overlap
     ethr =  2.67E-03,  avg # of iterations =  2.7

     negative rho (up, down):  0.000E+00 1.043E-03

     Magnetic moment per site:
     atom:    1    charge:   14.7807    magn:    3.0056    constr:    0.0000
     atom:    2    charge:   14.7807    magn:    3.0056    constr:    0.0000

     total cpu time spent up to now is       61.3 secs

     total energy              =    -658.39527541 Ry
     Harris-Foulkes estimate   =    -658.39540677 Ry
     estimated scf accuracy    <       0.00678778 Ry

     total magnetization       =     5.87 Bohr mag/cell
     absolute magnetization    =     6.27 Bohr mag/cell

     iteration #  5     ecut=    50.00 Ry     beta=0.70
     Davidson diagonalization with overlap
     ethr =  2.12E-05,  avg # of iterations =  3.3

     negative rho (up, down):  0.000E+00 1.056E-03

     Magnetic moment per site:
     atom:    1    charge:   14.7701    magn:    3.0107    constr:    0.0000
     atom:    2    charge:   14.7701    magn:    3.0107    constr:    0.0000

     total cpu time spent up to now is       83.4 secs

     total energy              =    -658.40244221 Ry
     Harris-Foulkes estimate   =    -658.40137486 Ry
     estimated scf accuracy    <       0.00079297 Ry

     total magnetization       =     5.86 Bohr mag/cell
     absolute magnetization    =     6.23 Bohr mag/cell

     iteration #  6     ecut=    50.00 Ry     beta=0.70
     Davidson diagonalization with overlap
     ethr =  2.48E-06,  avg # of iterations =  2.1

     negative rho (up, down):  0.000E+00 1.066E-03

     Magnetic moment per site:
     atom:    1    charge:   14.7699    magn:    3.0145    constr:    0.0000
     atom:    2    charge:   14.7699    magn:    3.0145    constr:    0.0000

     total cpu time spent up to now is       94.3 secs

     total energy              =    -658.40221100 Ry
     Harris-Foulkes estimate   =    -658.40269858 Ry
     estimated scf accuracy    <       0.00061607 Ry

     total magnetization       =     5.84 Bohr mag/cell
     absolute magnetization    =     6.21 Bohr mag/cell

     iteration #  7     ecut=    50.00 Ry     beta=0.70
     Davidson diagonalization with overlap
     ethr =  1.93E-06,  avg # of iterations =  1.3

     negative rho (up, down):  0.000E+00 1.020E-03

     Magnetic moment per site:
     atom:    1    charge:   14.7680    magn:    2.9994    constr:    0.0000
     atom:    2    charge:   14.7680    magn:    2.9994    constr:    0.0000

     total cpu time spent up to now is      103.8 secs

     total energy              =    -658.40339964 Ry
     Harris-Foulkes estimate   =    -658.40223886 Ry
     estimated scf accuracy    <       0.00124184 Ry

     total magnetization       =     5.84 Bohr mag/cell
     absolute magnetization    =     6.21 Bohr mag/cell

     iteration #  8     ecut=    50.00 Ry     beta=0.70
     Davidson diagonalization with overlap
     ethr =  1.93E-06,  avg # of iterations =  2.6

     negative rho (up, down):  0.000E+00 1.029E-03

     Magnetic moment per site:
     atom:    1    charge:   14.7702    magn:    3.0006    constr:    0.0000
     atom:    2    charge:   14.7702    magn:    3.0006    constr:    0.0000

     total cpu time spent up to now is      115.2 secs

     total energy              =    -658.40364119 Ry
     Harris-Foulkes estimate   =    -658.40381662 Ry
     estimated scf accuracy    <       0.00021307 Ry

     total magnetization       =     5.82 Bohr mag/cell
     absolute magnetization    =     6.17 Bohr mag/cell

     iteration #  9     ecut=    50.00 Ry     beta=0.70
     Davidson diagonalization with overlap
     ethr =  6.66E-07,  avg # of iterations =  1.6

     negative rho (up, down):  0.000E+00 1.020E-03

     Magnetic moment per site:
     atom:    1    charge:   14.7710    magn:    2.9906    constr:    0.0000
     atom:    2    charge:   14.7710    magn:    2.9906    constr:    0.0000

     total cpu time spent up to now is      124.9 secs

     total energy              =    -658.40395227 Ry
     Harris-Foulkes estimate   =    -658.40365551 Ry
     estimated scf accuracy    <       0.00052344 Ry

     total magnetization       =     5.82 Bohr mag/cell
     absolute magnetization    =     6.17 Bohr mag/cell

     iteration # 10     ecut=    50.00 Ry     beta=0.70
     Davidson diagonalization with overlap
     ethr =  6.66E-07,  avg # of iterations =  2.0

     negative rho (up, down):  0.000E+00 1.012E-03

     Magnetic moment per site:
     atom:    1    charge:   14.7716    magn:    2.9835    constr:    0.0000
     atom:    2    charge:   14.7716    magn:    2.9835    constr:    0.0000

     total cpu time spent up to now is      136.2 secs

     total energy              =    -658.40411275 Ry
     Harris-Foulkes estimate   =    -658.40399771 Ry
     estimated scf accuracy    <       0.00023250 Ry

     total magnetization       =     5.81 Bohr mag/cell
     absolute magnetization    =     6.16 Bohr mag/cell

     iteration # 11     ecut=    50.00 Ry     beta=0.70
     Davidson diagonalization with overlap
     ethr =  6.66E-07,  avg # of iterations =  1.7

     negative rho (up, down):  0.000E+00 1.004E-03

     Magnetic moment per site:
     atom:    1    charge:   14.7723    magn:    2.9767    constr:    0.0000
     atom:    2    charge:   14.7723    magn:    2.9767    constr:    0.0000

     total cpu time spent up to now is      146.1 secs

     total energy              =    -658.40418801 Ry
     Harris-Foulkes estimate   =    -658.40413934 Ry
     estimated scf accuracy    <       0.00009333 Ry

     total magnetization       =     5.80 Bohr mag/cell
     absolute magnetization    =     6.15 Bohr mag/cell

     iteration # 12     ecut=    50.00 Ry     beta=0.70
     Davidson diagonalization with overlap
     ethr =  2.92E-07,  avg # of iterations =  2.2

     negative rho (up, down):  0.000E+00 9.930E-04

     Magnetic moment per site:
     atom:    1    charge:   14.7733    magn:    2.9660    constr:    0.0000
     atom:    2    charge:   14.7733    magn:    2.9660    constr:    0.0000

     total cpu time spent up to now is      156.4 secs

     total energy              =    -658.40413144 Ry
     Harris-Foulkes estimate   =    -658.40420776 Ry
     estimated scf accuracy    <       0.00002047 Ry

     total magnetization       =     5.79 Bohr mag/cell
     absolute magnetization    =     6.14 Bohr mag/cell

     iteration # 13     ecut=    50.00 Ry     beta=0.70
     Davidson diagonalization with overlap
     ethr =  6.40E-08,  avg # of iterations =  3.8

     negative rho (up, down):  0.000E+00 9.991E-04

     Magnetic moment per site:
     atom:    1    charge:   14.7728    magn:    2.9718    constr:    0.0000
     atom:    2    charge:   14.7728    magn:    2.9718    constr:    0.0000

     total cpu time spent up to now is      169.9 secs

     total energy              =    -658.40422908 Ry
     Harris-Foulkes estimate   =    -658.40416743 Ry
     estimated scf accuracy    <       0.00001456 Ry

     total magnetization       =     5.79 Bohr mag/cell
     absolute magnetization    =     6.12 Bohr mag/cell

     iteration # 14     ecut=    50.00 Ry     beta=0.70
     Davidson diagonalization with overlap
     ethr =  4.55E-08,  avg # of iterations =  2.3

     negative rho (up, down):  0.000E+00 9.986E-04

     Magnetic moment per site:
     atom:    1    charge:   14.7729    magn:    2.9711    constr:    0.0000
     atom:    2    charge:   14.7729    magn:    2.9711    constr:    0.0000

     total cpu time spent up to now is      181.5 secs

     total energy              =    -658.40423590 Ry
     Harris-Foulkes estimate   =    -658.40423478 Ry
     estimated scf accuracy    <       0.00000549 Ry

     total magnetization       =     5.79 Bohr mag/cell
     absolute magnetization    =     6.13 Bohr mag/cell

     iteration # 15     ecut=    50.00 Ry     beta=0.70
     Davidson diagonalization with overlap
     ethr =  1.72E-08,  avg # of iterations =  1.1

     negative rho (up, down):  0.000E+00 9.963E-04

     Magnetic moment per site:
     atom:    1    charge:   14.7731    magn:    2.9688    constr:    0.0000
     atom:    2    charge:   14.7731    magn:    2.9688    constr:    0.0000

     total cpu time spent up to now is      191.2 secs

     total energy              =    -658.40423772 Ry
     Harris-Foulkes estimate   =    -658.40423611 Ry
     estimated scf accuracy    <       0.00000394 Ry

     total magnetization       =     5.79 Bohr mag/cell
     absolute magnetization    =     6.13 Bohr mag/cell

     iteration # 16     ecut=    50.00 Ry     beta=0.70
     Davidson diagonalization with overlap
     ethr =  1.23E-08,  avg # of iterations =  2.2

     negative rho (up, down):  0.000E+00 9.964E-04

     Magnetic moment per site:
     atom:    1    charge:   14.7731    magn:    2.9688    constr:    0.0000
     atom:    2    charge:   14.7731    magn:    2.9688    constr:    0.0000

     total cpu time spent up to now is      202.6 secs

     total energy              =    -658.40423966 Ry
     Harris-Foulkes estimate   =    -658.40423906 Ry
     estimated scf accuracy    <       0.00000002 Ry

     total magnetization       =     5.79 Bohr mag/cell
     absolute magnetization    =     6.12 Bohr mag/cell

     iteration # 17     ecut=    50.00 Ry     beta=0.70
     Davidson diagonalization with overlap
     ethr =  7.62E-11,  avg # of iterations =  3.9

     negative rho (up, down):  0.000E+00 9.964E-04

     Magnetic moment per site:
     atom:    1    charge:   14.7731    magn:    2.9688    constr:    0.0000
     atom:    2    charge:   14.7731    magn:    2.9688    constr:    0.0000

     total cpu time spent up to now is      217.0 secs

     total energy              =    -658.40423974 Ry
     Harris-Foulkes estimate   =    -658.40423971 Ry
     estimated scf accuracy    <       0.00000012 Ry

     total magnetization       =     5.79 Bohr mag/cell
     absolute magnetization    =     6.12 Bohr mag/cell

     iteration # 18     ecut=    50.00 Ry     beta=0.70
     Davidson diagonalization with overlap
     ethr =  7.62E-11,  avg # of iterations =  2.1

     negative rho (up, down):  0.000E+00 9.966E-04

     Magnetic moment per site:
     atom:    1    charge:   14.7731    magn:    2.9690    constr:    0.0000
     atom:    2    charge:   14.7731    magn:    2.9690    constr:    0.0000

     total cpu time spent up to now is      226.9 secs

     total energy              =    -658.40423959 Ry
     Harris-Foulkes estimate   =    -658.40423975 Ry
     estimated scf accuracy    <       0.00000016 Ry

     total magnetization       =     5.79 Bohr mag/cell
     absolute magnetization    =     6.12 Bohr mag/cell

     iteration # 19     ecut=    50.00 Ry     beta=0.70
     Davidson diagonalization with overlap
     ethr =  7.62E-11,  avg # of iterations =  1.9

     negative rho (up, down):  0.000E+00 9.969E-04

     Magnetic moment per site:
     atom:    1    charge:   14.7731    magn:    2.9691    constr:    0.0000
     atom:    2    charge:   14.7731    magn:    2.9691    constr:    0.0000

     total cpu time spent up to now is      236.6 secs

     total energy              =    -658.40423934 Ry
     Harris-Foulkes estimate   =    -658.40423959 Ry
     estimated scf accuracy    <       0.00000031 Ry

     total magnetization       =     5.79 Bohr mag/cell
     absolute magnetization    =     6.12 Bohr mag/cell

     iteration # 20     ecut=    50.00 Ry     beta=0.70
     Davidson diagonalization with overlap
     ethr =  7.62E-11,  avg # of iterations =  1.7

     negative rho (up, down):  0.000E+00 9.966E-04

     Magnetic moment per site:
     atom:    1    charge:   14.7731    magn:    2.9689    constr:    0.0000
     atom:    2    charge:   14.7731    magn:    2.9689    constr:    0.0000

     total cpu time spent up to now is      246.7 secs

     total energy              =    -658.40423964 Ry
     Harris-Foulkes estimate   =    -658.40423934 Ry
     estimated scf accuracy    <       0.00000051 Ry

     total magnetization       =     5.79 Bohr mag/cell
     absolute magnetization    =     6.12 Bohr mag/cell

     iteration # 21     ecut=    50.00 Ry     beta=0.70
     Davidson diagonalization with overlap
     ethr =  7.62E-11,  avg # of iterations =  2.3

     negative rho (up, down):  0.000E+00 9.964E-04

     Magnetic moment per site:
     atom:    1    charge:   14.7731    magn:    2.9687    constr:    0.0000
     atom:    2    charge:   14.7731    magn:    2.9687    constr:    0.0000

     total cpu time spent up to now is      258.3 secs

     total energy              =    -658.40423977 Ry
     Harris-Foulkes estimate   =    -658.40423965 Ry
     estimated scf accuracy    <       0.00000025 Ry

     total magnetization       =     5.79 Bohr mag/cell
     absolute magnetization    =     6.12 Bohr mag/cell

     iteration # 22     ecut=    50.00 Ry     beta=0.70
     Davidson diagonalization with overlap
     ethr =  7.62E-11,  avg # of iterations =  2.4

     negative rho (up, down):  0.000E+00 9.964E-04

     Magnetic moment per site:
     atom:    1    charge:   14.7731    magn:    2.9687    constr:    0.0000
     atom:    2    charge:   14.7731    magn:    2.9687    constr:    0.0000

     total cpu time spent up to now is      268.5 secs

     total energy              =    -658.40423978 Ry
     Harris-Foulkes estimate   =    -658.40423978 Ry
     estimated scf accuracy    <       0.00000012 Ry

     total magnetization       =     5.79 Bohr mag/cell
     absolute magnetization    =     6.12 Bohr mag/cell

     iteration # 23     ecut=    50.00 Ry     beta=0.70
     Davidson diagonalization with overlap
     ethr =  7.62E-11,  avg # of iterations =  1.0

     negative rho (up, down):  0.000E+00 9.961E-04

     Magnetic moment per site:
     atom:    1    charge:   14.7731    magn:    2.9684    constr:    0.0000
     atom:    2    charge:   14.7731    magn:    2.9684    constr:    0.0000

     total cpu time spent up to now is      277.6 secs

     total energy              =    -658.40423986 Ry
     Harris-Foulkes estimate   =    -658.40423978 Ry
     estimated scf accuracy    <       0.00000011 Ry

     total magnetization       =     5.79 Bohr mag/cell
     absolute magnetization    =     6.12 Bohr mag/cell

     iteration # 24     ecut=    50.00 Ry     beta=0.70
     Davidson diagonalization with overlap
     ethr =  7.62E-11,  avg # of iterations =  2.6

     negative rho (up, down):  0.000E+00 9.957E-04

     Magnetic moment per site:
     atom:    1    charge:   14.7732    magn:    2.9681    constr:    0.0000
     atom:    2    charge:   14.7732    magn:    2.9681    constr:    0.0000

     total cpu time spent up to now is      289.5 secs

     total energy              =    -658.40423980 Ry
     Harris-Foulkes estimate   =    -658.40423987 Ry
     estimated scf accuracy    <       0.00000002 Ry

     total magnetization       =     5.79 Bohr mag/cell
     absolute magnetization    =     6.12 Bohr mag/cell

     iteration # 25     ecut=    50.00 Ry     beta=0.70
     Davidson diagonalization with overlap
     ethr =  5.69E-11,  avg # of iterations =  3.3

     negative rho (up, down):  0.000E+00 9.958E-04

     Magnetic moment per site:
     atom:    1    charge:   14.7732    magn:    2.9682    constr:    0.0000
     atom:    2    charge:   14.7732    magn:    2.9682    constr:    0.0000

     total cpu time spent up to now is      301.5 secs

     total energy              =    -658.40423988 Ry
     Harris-Foulkes estimate   =    -658.40423983 Ry
     estimated scf accuracy    <       0.00000002 Ry

     total magnetization       =     5.79 Bohr mag/cell
     absolute magnetization    =     6.12 Bohr mag/cell

     iteration # 26     ecut=    50.00 Ry     beta=0.70
     Davidson diagonalization with overlap
     ethr =  5.69E-11,  avg # of iterations =  1.6

     negative rho (up, down):  0.000E+00 9.958E-04

     Magnetic moment per site:
     atom:    1    charge:   14.7731    magn:    2.9682    constr:    0.0000
     atom:    2    charge:   14.7731    magn:    2.9682    constr:    0.0000

     total cpu time spent up to now is      310.8 secs

     End of self-consistent calculation

 ------ SPIN UP ------------


          k = 0.0000 0.0000 0.0000 (  1449 PWs)   bands (ev):

   -77.9539 -77.9473 -44.0188 -44.0188 -44.0111 -44.0111 -43.9195 -43.8611
     3.8527   6.8949   8.1701   8.1701   8.2861   8.2861   8.3517   8.3517
     8.4380   8.7833   8.7833  10.0699

          k = 0.0000 0.0000 0.1149 (  1443 PWs)   bands (ev):

   -77.9529 -77.9481 -44.0180 -44.0180 -44.0116 -44.0116 -43.9144 -43.8667
     4.1062   6.6783   8.1280   8.1280   8.2449   8.2449   8.4036   8.4469
     8.4469   8.7731   8.7731   9.1368

          k = 0.0000 0.0000 0.2299 (  1438 PWs)   bands (ev):

   -77.9514 -77.9495 -44.0159 -44.0159 -44.0140 -44.0140 -43.9000 -43.8814
     4.8295   5.8596   8.1135   8.1135   8.1644   8.1644   8.3445   8.4359
     8.5998   8.5998   8.7182   8.7182

          k = 0.0000 0.1155 0.0000 (  1445 PWs)   bands (ev):

   -77.9531 -77.9465 -44.0252 -44.0206 -44.0183 -44.0130 -43.9172 -43.8616
     4.1115   7.0633   8.0830   8.2247   8.2355   8.2645   8.3059   8.3732
     8.4302   8.5259   8.7955  10.7421

          k = 0.0000 0.1155 0.1149 (  1445 PWs)   bands (ev):

   -77.9522 -77.9474 -44.0249 -44.0199 -44.0191 -44.0135 -43.9125 -43.8666
     4.3604   6.8635   8.0567   8.1061   8.1932   8.2721   8.3221   8.3976
     8.4413   8.5744   8.7828   9.7427

          k = 0.0000 0.1155 0.2299 (  1442 PWs)   bands (ev):

   -77.9505 -77.9489 -44.0234 -44.0211 -44.0181 -44.0154 -43.8987 -43.8807
     5.0701   6.0734   8.0085   8.0375   8.1809   8.2382   8.2559   8.3060
     8.5988   8.7221   8.7263   9.0077

          k = 0.0000 0.2309 0.0000 (  1447 PWs)   bands (ev):

   -77.9506 -77.9452 -44.0434 -44.0360 -44.0261 -44.0166 -43.9121 -43.8630
     4.8546   7.3932   7.7304   7.9792   8.1506   8.1986   8.2225   8.5215
     8.6084   8.7511   8.8152  12.0223

          k = 0.0000 0.2309 0.1149 (  1438 PWs)   bands (ev):

   -77.9499 -77.9456 -44.0429 -44.0370 -44.0250 -44.0174 -43.9071 -43.8671
     5.0838   7.2329   7.7066   7.9575   8.1279   8.2197   8.2681   8.5210
     8.5887   8.7798   8.8106  10.5855

          k = 0.0000 0.2309 0.2299 (  1443 PWs)   bands (ev):

   -77.9485 -77.9471 -44.0414 -44.0391 -44.0228 -44.0198 -43.8948 -43.8793
     5.7232   6.5831   7.7840   7.8977   8.1656   8.2408   8.2902   8.4063
     8.6730   8.7644   8.9468   9.4431

          k = 0.0000 0.3464 0.0000 (  1449 PWs)   bands (ev):

   -77.9478 -77.9433 -44.0653 -44.0582 -44.0322 -44.0214 -43.9037 -43.8657
     5.9228   7.3240   7.3595   8.0122   8.0566   8.0811   8.4183   8.8256
     8.8605   8.9169   9.1429  13.6093

          k = 0.0000 0.3464 0.1149 (  1448 PWs)   bands (ev):

   -77.9473 -77.9438 -44.0649 -44.0588 -44.0312 -44.0225 -43.9000 -43.8693
     6.0743   7.1969   7.4658   7.8189   8.1369   8.3214   8.4501   8.7064
     8.8797   8.9512   9.1118  11.5773

          k = 0.0000 0.3464 0.2299 (  1438 PWs)   bands (ev):

   -77.9460 -77.9447 -44.0632 -44.0608 -44.0287 -44.0252 -43.8896 -43.8780
     6.4525   6.8811   7.6237   7.7376   8.2904   8.5004   8.5341   8.6051
     8.9167   8.9509   9.1856  10.0038

          k = 0.0000 0.4619 0.0000 (  1448 PWs)   bands (ev):

   -77.9451 -77.9420 -44.0831 -44.0752 -44.0368 -44.0251 -43.8958 -43.8698
     6.7561   7.0861   7.1767   7.9274   7.9933   8.3725   8.7430   8.8273
     9.1476   9.1912   9.8983  14.0131

          k = 0.0000 0.4619 0.1149 (  1454 PWs)   bands (ev):

   -77.9449 -77.9425 -44.0829 -44.0767 -44.0360 -44.0266 -43.8930 -43.8718
     6.6876   7.0757   7.3386   7.6797   8.0628   8.6712   8.7315   8.9643
     9.1548   9.1944   9.8114  12.7267

          k = 0.0000 0.4619 0.2299 (  1448 PWs)   bands (ev):

   -77.9440 -77.9431 -44.0812 -44.0790 -44.0331 -44.0296 -43.8856 -43.8776
     6.7154   6.8960   7.5157   7.5791   8.2523   8.5050   9.0250   9.1720
     9.1890   9.3851   9.8929  11.0717

          k = 0.0000-0.5774 0.0000 (  1468 PWs)   bands (ev):

   -77.9443 -77.9420 -44.0901 -44.0826 -44.0390 -44.0269 -43.8922 -43.8729
     6.9704   7.0088   7.0705   7.8784   7.9611   8.7209   8.8222   8.8268
     9.2569   9.3067  11.1103  12.2145

          k = 0.0000-0.5774 0.1149 (  1456 PWs)   bands (ev):

   -77.9440 -77.9420 -44.0896 -44.0832 -44.0378 -44.0286 -43.8893 -43.8737
     6.7579   7.0498   7.3167   7.6300   8.0347   8.7325   8.8083   9.2131
     9.2633   9.3026  11.0699  12.1401

          k = 0.0000-0.5774 0.2299 (  1462 PWs)   bands (ev):

   -77.9433 -77.9428 -44.0883 -44.0862 -44.0350 -44.0313 -43.8840 -43.8778
     6.7296   6.8878   7.4967   7.4993   8.2349   8.5001   9.1467   9.2770
     9.2915   9.4958  11.2358  11.7993

          k = 0.1000 0.1732 0.0000 (  1436 PWs)   bands (ev):

   -77.9513 -77.9454 -44.0367 -44.0316 -44.0229 -44.0165 -43.9135 -43.8624
     4.6144   7.3422   7.8856   7.9440   8.1462   8.1611   8.3423   8.4707
     8.5050   8.7009   8.7988  11.6511

          k = 0.1000 0.1732 0.1149 (  1444 PWs)   bands (ev):

   -77.9506 -77.9462 -44.0364 -44.0320 -44.0230 -44.0174 -43.9088 -43.8670
     4.8516   7.1671   7.8105   7.9398   8.1582   8.2011   8.2925   8.4580
     8.5453   8.7260   8.7956  10.3538

          k = 0.1000 0.1732 0.2299 (  1443 PWs)   bands (ev):

   -77.9492 -77.9476 -44.0351 -44.0334 -44.0216 -44.0194 -43.8957 -43.8797
     5.5213   6.4483   7.8409   7.9225   8.1569   8.2005   8.2829   8.3634
     8.6577   8.7521   8.8855   9.3249

          k = 0.1000 0.2887 0.0000 (  1447 PWs)   bands (ev):

   -77.9487 -77.9440 -44.0552 -44.0504 -44.0303 -44.0224 -43.9072 -43.8644
     5.5429   7.4757   7.5383   7.8735   7.9957   8.1592   8.2280   8.7208
     8.7964   8.8377   9.0571  13.0230

          k = 0.1000 0.2887 0.1149 (  1446 PWs)   bands (ev):

   -77.9482 -77.9444 -44.0548 -44.0508 -44.0298 -44.0232 -43.9027 -43.8684
     5.7373   7.3207   7.6004   7.8520   8.0628   8.1786   8.2228   8.6330
     8.8333   8.8765   9.0547  11.2204

          k = 0.1000 0.2887 0.2299 (  1436 PWs)   bands (ev):

   -77.9469 -77.9454 -44.0535 -44.0518 -44.0278 -44.0254 -43.8914 -43.8783
     6.2581   6.8806   7.7188   7.8234   8.1313   8.1885   8.2988   8.4668
     8.9454   8.9901   9.0951   9.7987

          k = 0.1000 0.4041 0.0000 (  1445 PWs)   bands (ev):

   -77.9458 -77.9424 -44.0740 -44.0677 -44.0376 -44.0274 -43.8988 -43.8680
     6.5818   7.1936   7.3553   7.8946   8.0148   8.0756   8.4700   8.7914
     8.9934   9.1895   9.6413  14.4182

          k = 0.1000 0.4041 0.1149 (  1449 PWs)   bands (ev):

   -77.9457 -77.9427 -44.0738 -44.0688 -44.0368 -44.0286 -43.8953 -43.8707
     6.6209   7.1728   7.4318   7.7356   8.0705   8.3320   8.4913   8.6923
     9.0289   9.2392   9.6116  12.3863

          k = 0.1000 0.4041 0.2299 (  1449 PWs)   bands (ev):

   -77.9447 -77.9436 -44.0728 -44.0708 -44.0344 -44.0314 -43.8870 -43.8777
     6.7579   6.9805   7.5966   7.6981   8.1883   8.4119   8.5938   8.6189
     9.2129   9.3474   9.6982  10.6973

          k = 0.1000 0.5196 0.0000 (  1453 PWs)   bands (ev):

   -77.9440 -77.9417 -44.0864 -44.0788 -44.0421 -44.0311 -43.8918 -43.8723
     7.0436   7.0564   7.1990   7.8685   7.9477   8.4477   8.6701   8.7867
     9.2243   9.3628  10.8021  13.1479

          k = 0.1000 0.5196 0.1149 (  1446 PWs)   bands (ev):

   -77.9437 -77.9419 -44.0859 -44.0798 -44.0410 -44.0319 -43.8893 -43.8735
     6.8425   7.1559   7.3836   7.6460   7.9748   8.6512   8.7235   8.7869
     9.2336   9.4261  10.8295  12.9259

          k = 0.1000 0.5196 0.2299 (  1448 PWs)   bands (ev):

   -77.9431 -77.9425 -44.0845 -44.0823 -44.0382 -44.0347 -43.8837 -43.8776
     6.8247   6.9861   7.5429   7.5887   8.1297   8.4133   8.9178   8.9740
     9.3175   9.4862  11.1418  12.0127

          k = 0.2000 0.3464 0.0000 (  1448 PWs)   bands (ev):

   -77.9462 -77.9426 -44.0659 -44.0654 -44.0392 -44.0318 -43.8998 -43.8675
     6.5272   7.2684   7.6290   7.7131   7.8381   8.1383   8.2552   8.7513
     8.8828   9.2358   9.6237  14.4057

          k = 0.2000 0.3464 0.1149 (  1448 PWs)   bands (ev):

   -77.9458 -77.9429 -44.0661 -44.0657 -44.0385 -44.0326 -43.8962 -43.8704
     6.6202   7.2178   7.6413   7.7685   7.9610   8.1042   8.2466   8.6398
     8.9646   9.2764   9.6273  12.2714

          k = 0.2000 0.3464 0.2299 (  1435 PWs)   bands (ev):

   -77.9447 -77.9437 -44.0659 -44.0655 -44.0370 -44.0344 -43.8874 -43.8774
     6.8404   7.0669   7.7202   7.8075   8.1103   8.1187   8.2666   8.4281
     9.2449   9.3433   9.7434  10.6333

          k = 0.2000 0.4619 0.0000 (  1458 PWs)   bands (ev):

   -77.9441 -77.9419 -44.0778 -44.0727 -44.0487 -44.0402 -43.8920 -43.8721
     7.1495   7.2679   7.4764   7.7834   7.8967   7.9841   8.4567   8.7160
     9.0979   9.4302  10.6434  14.8661

          k = 0.2000 0.4619 0.1149 (  1456 PWs)   bands (ev):

   -77.9438 -77.9421 -44.0772 -44.0733 -44.0482 -44.0409 -43.8895 -43.8736
     7.0673   7.3041   7.5142   7.7287   7.9241   8.1496   8.4667   8.6211
     9.1563   9.4653  10.7260  13.6901

          k = 0.2000 0.4619 0.2299 (  1456 PWs)   bands (ev):

   -77.9433 -77.9427 -44.0763 -44.0747 -44.0463 -44.0436 -43.8838 -43.8777
     7.0578   7.1678   7.6502   7.7850   7.9617   8.1930   8.4982   8.5091
     9.3481   9.4863  11.1162  12.1140

          k = 0.2000 0.5774 0.0000 (  1456 PWs)   bands (ev):

   -77.9430 -77.9418 -44.0819 -44.0746 -44.0534 -44.0430 -43.8874 -43.8753
     7.1127   7.3825   7.4090   7.8302   7.8555   8.1360   8.5560   8.7031
     9.2384   9.4328  12.1635  12.8007

          k = 0.2000 0.5774 0.1149 (  1459 PWs)   bands (ev):

   -77.9429 -77.9419 -44.0815 -44.0755 -44.0526 -44.0442 -43.8857 -43.8758
     7.0498   7.4125   7.5514   7.6363   7.8283   8.3057   8.5879   8.6256
     9.2733   9.4714  12.3225  12.8578

          k = 0.2000 0.5774 0.2299 (  1455 PWs)   bands (ev):

   -77.9426 -77.9421 -44.0801 -44.0777 -44.0500 -44.0471 -43.8816 -43.8780
     7.0623   7.2244   7.6419   7.7586   7.8649   8.1853   8.6279   8.6444
     9.3868   9.4914  12.7394  12.9677

          k = 0.3000 0.5196 0.0000 (  1452 PWs)   bands (ev):

   -77.9425 -77.9418 -44.0753 -44.0697 -44.0603 -44.0528 -43.8846 -43.8771
     7.1637   7.5839   7.7216   7.7624   7.7630   7.8512   8.4495   8.6599
     9.2537   9.4176  12.2964  14.5032

          k = 0.3000 0.5196 0.1149 (  1455 PWs)   bands (ev):

   -77.9424 -77.9419 -44.0743 -44.0699 -44.0606 -44.0541 -43.8835 -43.8774
     7.2115   7.4968   7.6592   7.6682   7.9027   7.9749   8.4377   8.5685
     9.3027   9.4481  12.4718  14.5213

          k = 0.3000 0.5196 0.2299 (  1462 PWs)   bands (ev):

   -77.9423 -77.9422 -44.0728 -44.0713 -44.0596 -44.0568 -43.8809 -43.8784
     7.3016   7.3751   7.6433   7.6682   7.9719   8.0411   8.4192   8.4388
     9.4143   9.4768  13.0085  13.9119

 ------ SPIN DOWN ----------


          k = 0.0000 0.0000 0.0000 (  1449 PWs)   bands (ev):

   -74.5624 -74.5550 -40.6759 -40.6759 -40.6673 -40.6673 -40.6581 -40.5885
     4.1159   7.8632  10.0728  10.1798  10.8296  10.8296  10.9915  10.9915
    12.0660  12.0660  12.6432  12.6432

          k = 0.0000 0.0000 0.1149 (  1443 PWs)   bands (ev):

   -74.5615 -74.5558 -40.6751 -40.6751 -40.6679 -40.6679 -40.6517 -40.5952
     4.3704   7.3688   9.8796  10.0157  10.8273  10.8273  10.9607  10.9607
    12.1404  12.1404  12.6054  12.6054

          k = 0.0000 0.0000 0.2299 (  1438 PWs)   bands (ev):

   -74.5597 -74.5574 -40.6729 -40.6729 -40.6705 -40.6705 -40.6344 -40.6126
     5.1046   6.2139   9.7652   9.8785  10.8422  10.8422  10.8945  10.8945
    12.3131  12.3131  12.4897  12.4897

          k = 0.0000 0.1155 0.0000 (  1445 PWs)   bands (ev):

   -74.5614 -74.5542 -40.6836 -40.6781 -40.6757 -40.6694 -40.6554 -40.5891
     4.3754   8.0647  10.0759  10.1126  10.7489  10.9128  10.9439  11.0975
    11.9540  11.9956  12.6640  13.0104

          k = 0.0000 0.1155 0.1149 (  1445 PWs)   bands (ev):

   -74.5606 -74.5550 -40.6834 -40.6773 -40.6766 -40.6700 -40.6493 -40.5952
     4.6272   7.5888   9.8309  10.0611  10.7316  10.8917  10.9394  11.0660
    12.0436  12.0798  12.6162  12.7458

          k = 0.0000 0.1155 0.2299 (  1442 PWs)   bands (ev):

   -74.5587 -74.5568 -40.6818 -40.6791 -40.6752 -40.6722 -40.6326 -40.6117
     5.3547   6.4515   9.7707   9.9165  10.7390  10.8098  10.9505  11.0003
    12.2613  12.2742  12.4769  12.5031

          k = 0.0000 0.2309 0.0000 (  1447 PWs)   bands (ev):

   -74.5586 -74.5525 -40.7050 -40.6966 -40.6844 -40.6736 -40.6489 -40.5908
     5.1312   8.5809   9.8906  10.1287  10.5684  10.8365  11.2599  11.3857
    11.7062  11.8344  12.6966  13.9086

          k = 0.0000 0.2309 0.1149 (  1438 PWs)   bands (ev):

   -74.5579 -74.5530 -40.7048 -40.6979 -40.6832 -40.6746 -40.6428 -40.5957
     5.3740   8.1795   9.7320  10.1301  10.5164  10.7791  11.2460  11.3514
    11.8345  11.9437  12.6267  13.0573

          k = 0.0000 0.2309 0.2299 (  1443 PWs)   bands (ev):

   -74.5564 -74.5547 -40.7034 -40.7006 -40.6807 -40.6773 -40.6277 -40.6097
     6.0734   7.1239   9.7836  10.0077  10.4938  10.6307  11.2453  11.2884
    12.1470  12.1827  12.4372  12.5336

          k = 0.0000 0.3464 0.0000 (  1449 PWs)   bands (ev):

   -74.5553 -74.5504 -40.7309 -40.7226 -40.6916 -40.6792 -40.6391 -40.5941
     6.2992   9.0769   9.7800  10.0223  10.3645  11.1285  11.4059  11.6605
    11.6894  11.7683  12.7136  14.7950

          k = 0.0000 0.3464 0.1149 (  1448 PWs)   bands (ev):

   -74.5548 -74.5509 -40.7308 -40.7237 -40.6905 -40.6805 -40.6343 -40.5980
     6.5196   8.8526   9.6451  10.1201  10.2939  10.9019  11.6087  11.6491
    11.7271  11.8546  12.6187  13.4557

          k = 0.0000 0.3464 0.2299 (  1438 PWs)   bands (ev):

   -74.5535 -74.5520 -40.7294 -40.7266 -40.6875 -40.6835 -40.6217 -40.6080
     7.1451   8.0430   9.7644  10.0460  10.3250  10.5971  11.6202  11.6745
    12.0502  12.0974  12.3808  12.5919

          k = 0.0000 0.4619 0.0000 (  1448 PWs)   bands (ev):

   -74.5523 -74.5489 -40.7520 -40.7429 -40.6971 -40.6836 -40.6296 -40.5989
     7.6483   9.1454   9.7554   9.8643  10.4041  11.1486  11.5321  11.7546
    12.0662  12.1156  12.7170  14.7715

          k = 0.0000 0.4619 0.1149 (  1454 PWs)   bands (ev):

   -74.5520 -74.5493 -40.7520 -40.7447 -40.6961 -40.6852 -40.6260 -40.6011
     7.8031   9.0864   9.6149  10.0122  10.3719  11.1513  11.6166  11.7841
    12.0830  12.0977  12.5963  13.8311

          k = 0.0000 0.4619 0.2299 (  1448 PWs)   bands (ev):

   -74.5511 -74.5501 -40.7506 -40.7479 -40.6927 -40.6886 -40.6169 -40.6075
     8.2169   8.7295   9.7055   9.9310  10.5667  10.9361  11.8341  12.0275
    12.0677  12.1451  12.3283  12.7276

          k = 0.0000-0.5774 0.0000 (  1468 PWs)   bands (ev):

   -74.5513 -74.5487 -40.7602 -40.7512 -40.6996 -40.6857 -40.6251 -40.6023
     8.4721   8.9933   9.7394   9.7614  10.4643  11.0430  11.4852  12.2089
    12.2693  12.4858  12.7165  13.5594

          k = 0.0000-0.5774 0.1149 (  1456 PWs)   bands (ev):

   -74.5509 -74.5487 -40.7600 -40.7525 -40.6982 -40.6874 -40.6216 -40.6033
     8.5331   8.9830   9.6765   9.8546  10.4653  11.3087  11.5821  12.2111
    12.2445  12.2653  12.5774  13.3794

          k = 0.0000-0.5774 0.2299 (  1462 PWs)   bands (ev):

   -74.5503 -74.5495 -40.7588 -40.7562 -40.6949 -40.6906 -40.6150 -40.6077
     8.6877   8.8728   9.7124   9.8684  10.7564  11.3937  11.8494  12.1466
    12.1740  12.2562  12.2875  12.8337

          k = 0.1000 0.1732 0.0000 (  1436 PWs)   bands (ev):

   -74.5594 -74.5529 -40.6971 -40.6914 -40.6809 -40.6735 -40.6508 -40.5901
     4.8838   8.4288   9.9410  10.1379  10.6586  10.7679  11.1690  11.3104
    11.7403  11.9296  12.6703  13.6386

          k = 0.1000 0.1732 0.1149 (  1444 PWs)   bands (ev):

   -74.5588 -74.5537 -40.6971 -40.6920 -40.6809 -40.6745 -40.6448 -40.5956
     5.1298   7.9987   9.7605  10.1197  10.5843  10.7669  11.1556  11.2736
    11.8848  11.9992  12.6079  12.9765

          k = 0.1000 0.1732 0.2299 (  1443 PWs)   bands (ev):

   -74.5572 -74.5553 -40.6959 -40.6938 -40.6793 -40.6768 -40.6290 -40.6102
     5.8398   6.9103   9.7830   9.9849  10.5546  10.6624  11.1604  11.2075
    12.1890  12.2014  12.4353  12.5372

          k = 0.1000 0.2887 0.0000 (  1447 PWs)   bands (ev):

   -74.5565 -74.5511 -40.7189 -40.7134 -40.6895 -40.6803 -40.6430 -40.5927
     5.8519   8.9751   9.8206  10.0196  10.5102  10.8184  11.4696  11.5472
    11.6885  11.7619  12.6687  14.7051

          k = 0.1000 0.2887 0.1149 (  1446 PWs)   bands (ev):

   -74.5559 -74.5516 -40.7188 -40.7142 -40.6889 -40.6812 -40.6375 -40.5971
     6.0820   8.6713   9.6791  10.0765  10.4411  10.6996  11.4820  11.6027
    11.7304  11.8890  12.5856  13.3455

          k = 0.1000 0.2887 0.2299 (  1436 PWs)   bands (ev):

   -74.5545 -74.5528 -40.7179 -40.7160 -40.6867 -40.6838 -40.6237 -40.6084
     6.7472   7.7282   9.7964  10.0847  10.2925  10.4963  11.4989  11.5679
    12.0955  12.1170  12.3738  12.6041

          k = 0.1000 0.4041 0.0000 (  1445 PWs)   bands (ev):

   -74.5532 -74.5494 -40.7413 -40.7339 -40.6981 -40.6863 -40.6331 -40.5969
     7.1412   9.2621   9.7908   9.8752  10.4164  11.2254  11.2389  11.5545
    11.9110  12.1360  12.6624  15.1953

          k = 0.1000 0.4041 0.1149 (  1449 PWs)   bands (ev):

   -74.5529 -74.5497 -40.7413 -40.7354 -40.6971 -40.6877 -40.6287 -40.5998
     7.3340   9.1750   9.6233  10.0212  10.3264  10.9177  11.5372  11.5983
    12.0078  12.0917  12.5719  13.8909

          k = 0.1000 0.4041 0.2299 (  1449 PWs)   bands (ev):

   -74.5519 -74.5507 -40.7406 -40.7382 -40.6945 -40.6909 -40.6184 -40.6075
     7.8703   8.5989   9.7546  10.0354  10.2849  10.5809  11.6875  11.9067
    12.0310  12.1909  12.4035  12.8105

          k = 0.1000 0.5196 0.0000 (  1453 PWs)   bands (ev):

   -74.5511 -74.5485 -40.7557 -40.7468 -40.7033 -40.6904 -40.6249 -40.6019
     8.3486   9.1650   9.7216   9.8147  10.5048  11.0653  11.4193  11.8117
    12.0734  12.6511  12.6555  14.2811

          k = 0.1000 0.5196 0.1149 (  1446 PWs)   bands (ev):

   -74.5508 -74.5487 -40.7555 -40.7483 -40.7021 -40.6916 -40.6216 -40.6031
     8.4504   9.1554   9.6386   9.9530  10.4391  11.0894  11.5251  11.8369
    12.1025  12.4008  12.7213  13.9681

          k = 0.1000 0.5196 0.2299 (  1448 PWs)   bands (ev):

   -74.5502 -74.5494 -40.7544 -40.7517 -40.6990 -40.6949 -40.6146 -40.6075
     8.7045   8.9907   9.7332   9.9493  10.5543  10.9232  11.7685  11.9844
    12.0109  12.1871  12.7835  13.2576

          k = 0.2000 0.3464 0.0000 (  1448 PWs)   bands (ev):

   -74.5536 -74.5496 -40.7316 -40.7313 -40.6998 -40.6913 -40.6343 -40.5964
     6.9612   9.3847   9.7871   9.8272  10.5467  10.8950  11.2298  11.5799
    11.8503  12.1713  12.6046  15.2992

          k = 0.2000 0.3464 0.1149 (  1448 PWs)   bands (ev):

   -74.5532 -74.5499 -40.7322 -40.7317 -40.6992 -40.6923 -40.6297 -40.5994
     7.1659   9.2956   9.6376   9.8567  10.5570  10.6024  11.4636  11.5476
    12.0257  12.0984  12.5432  13.9383

          k = 0.2000 0.3464 0.2299 (  1435 PWs)   bands (ev):

   -74.5520 -74.5509 -40.7326 -40.7321 -40.6976 -40.6947 -40.6189 -40.6072
     7.7477   8.5683   9.8216  10.0384  10.2153  10.3503  11.5926  11.8741
    12.0420  12.1940  12.4574  12.8865

          k = 0.2000 0.4619 0.0000 (  1458 PWs)   bands (ev):

   -74.5511 -74.5486 -40.7455 -40.7396 -40.7110 -40.7011 -40.6251 -40.6018
     8.2077   9.4389   9.6523   9.9130  10.6407  11.0760  11.2509  11.3290
    11.9353  12.5541  12.7894  15.6971

          k = 0.2000 0.4619 0.1149 (  1456 PWs)   bands (ev):

   -74.5508 -74.5489 -40.7453 -40.7406 -40.7106 -40.7021 -40.6218 -40.6031
     8.3579   9.5077   9.6143   9.9032  10.5149  10.8115  11.3038  11.5499
    12.0657  12.3088  12.9024  14.8357

          k = 0.2000 0.4619 0.2299 (  1456 PWs)   bands (ev):

   -74.5502 -74.5495 -40.7446 -40.7428 -40.7086 -40.7054 -40.6145 -40.6074
     8.7568   9.2417   9.7875  10.0041  10.2524  10.4377  11.5039  11.8800
    11.9582  12.1683  13.1082  13.7053

          k = 0.2000 0.5774 0.0000 (  1456 PWs)   bands (ev):

   -74.5499 -74.5484 -40.7504 -40.7417 -40.7166 -40.7046 -40.6197 -40.6054
     8.9230   9.3440   9.5553   9.9737  10.7022  11.0307  11.1953  11.6715
    11.7514  12.5352  13.5857  14.2299

          k = 0.2000 0.5774 0.1149 (  1459 PWs)   bands (ev):

   -74.5497 -74.5486 -40.7502 -40.7432 -40.7158 -40.7060 -40.6173 -40.6058
     9.0105   9.3802   9.5996  10.0310  10.5194  10.8471  11.3193  11.7435
    11.8854  12.3077  13.7174  14.2283

          k = 0.2000 0.5774 0.2299 (  1455 PWs)   bands (ev):

   -74.5494 -74.5489 -40.7489 -40.7462 -40.7131 -40.7095 -40.6120 -40.6077
     9.2050   9.3581   9.8082  10.1075  10.2801  10.5276  11.5410  11.8647
    11.9162  12.0236  13.9759  14.1788

          k = 0.3000 0.5196 0.0000 (  1452 PWs)   bands (ev):

   -74.5492 -74.5484 -40.7425 -40.7359 -40.7250 -40.7162 -40.6166 -40.6077
     9.0837   9.4539   9.5442  10.0851  10.9094  11.0055  11.0738  11.3585
    11.6926  12.4758  13.8352  15.4857

          k = 0.3000 0.5196 0.1149 (  1455 PWs)   bands (ev):

   -74.5492 -74.5485 -40.7416 -40.7366 -40.7254 -40.7177 -40.6147 -40.6076
     9.2028   9.5436   9.6049  10.0397  10.6835  10.7222  11.1020  11.6050
    11.8515  12.2394  14.0010  15.4700

          k = 0.3000 0.5196 0.2299 (  1462 PWs)   bands (ev):

   -74.5491 -74.5488 -40.7402 -40.7386 -40.7245 -40.7211 -40.6110 -40.6081
     9.4930   9.6869   9.7988  10.0067  10.1987  10.3159  11.3664  11.7827
    11.8794  11.9746  14.4110  15.0434

     the Fermi energy is    10.6570 ev

!    total energy              =    -658.40423988 Ry
     Harris-Foulkes estimate   =    -658.40423988 Ry
     estimated scf accuracy    <          1.3E-09 Ry

     total all-electron energy =     -5090.997311 Ry

     The total energy is the sum of the following terms:

     one-electron contribution =    -300.23083006 Ry
     hartree contribution      =     162.06285441 Ry
     xc contribution           =     -69.40298662 Ry
     ewald contribution        =    -298.55548658 Ry
     one-center paw contrib.   =    -152.27740855 Ry
     smearing contrib. (-TS)   =      -0.00038249 Ry

     total magnetization       =     5.79 Bohr mag/cell
     absolute magnetization    =     6.12 Bohr mag/cell

     convergence has been achieved in  26 iterations

     Forces acting on atoms (Ry/au):


     negative rho (up, down):  0.000E+00 9.958E-04
     atom    1 type  1   force =     0.00000000    0.00000000    0.00000000
     atom    2 type  1   force =     0.00000000    0.00000000    0.00000000

     Total force =     0.000000     Total SCF correction =     0.000000


     entering subroutine stress ...


     negative rho (up, down):  0.000E+00 9.958E-04
          total   stress  (Ry/bohr**3)                   (kbar)     P= -292.49
  -0.00210289   0.00000000   0.00000000       -309.35      0.00      0.00
   0.00000000  -0.00210289   0.00000000          0.00   -309.35      0.00
   0.00000000   0.00000000  -0.00175925          0.00      0.00   -258.79


     Writing output data file Fe_hcp.save

     init_run     :      5.28s CPU      5.31s WALL (       1 calls)
     electrons    :    287.73s CPU    305.08s WALL (       1 calls)
     forces       :      1.06s CPU      0.93s WALL (       1 calls)
     stress       :      2.87s CPU      3.12s WALL (       1 calls)

     Called by init_run:
     wfcinit      :      3.55s CPU      3.45s WALL (       1 calls)
     potinit      :      1.10s CPU      1.19s WALL (       1 calls)

     Called by electrons:
     c_bands      :    216.49s CPU    226.45s WALL (      26 calls)
     sum_band     :     37.09s CPU     39.70s WALL (      26 calls)
     v_of_rho     :      1.85s CPU      2.08s WALL (      27 calls)
     newd         :      2.48s CPU      2.92s WALL (      27 calls)
     mix_rho      :      0.36s CPU      0.51s WALL (      26 calls)

     Called by c_bands:
     init_us_2    :      3.11s CPU      3.47s WALL (    4620 calls)
     cegterg      :    207.52s CPU    216.33s WALL (    2184 calls)

     Called by *egterg:
     h_psi        :    164.38s CPU    179.81s WALL (    7171 calls)
     s_psi        :      7.61s CPU      5.13s WALL (    7171 calls)
     g_psi        :      0.90s CPU      0.99s WALL (    4903 calls)
     cdiaghg      :      7.64s CPU      8.73s WALL (    7087 calls)

     Called by h_psi:
     add_vuspsi   :      8.08s CPU      5.49s WALL (    7171 calls)

     General routines
     calbec       :     11.81s CPU      7.66s WALL (    9523 calls)
     fft          :      1.13s CPU      1.25s WALL (     871 calls)
     ffts         :      0.09s CPU      0.09s WALL (     106 calls)
     fftw         :    157.83s CPU    179.00s WALL (  257220 calls)
     interpolate  :      0.26s CPU      0.30s WALL (     106 calls)
     davcio       :      0.00s CPU      0.05s WALL (      84 calls)


     PAW routines
     PAW_pot      :     30.42s CPU     34.40s WALL (      27 calls)
     PAW_symme    :      0.04s CPU      0.04s WALL (      53 calls)

     PWSCF        :  4m57.47s CPU     5m15.25s WALL


   This run was terminated on:  22:52:36  11May2015            

=------------------------------------------------------------------------------=
   JOB DONE.
=------------------------------------------------------------------------------=
