
     Program PWSCF v.5.1.2 starts on 11May2015 at 21: 0:57 

     This program is part of the open-source Quantum ESPRESSO suite
     for quantum simulation of materials; please cite
         "P. Giannozzi et al., J. Phys.:Condens. Matter 21 395502 (2009);
          URL http://www.quantum-espresso.org", 
     in publications or presentations arising from this work. More details at
     http://www.quantum-espresso.org/quote

     Serial version
     Reading input from Fe_HCP_5.4_174_9_5.pw.in

     Current dimensions of program PWSCF are:
     Max number of different atomic species (ntypx) = 10
     Max number of k-points (npk) =  40000
     Max angular momentum in pseudopotentials (lmaxx) =  3
               file Fe.pbe-spn-kjpaw_psl.0.2.1.UPF: wavefunction(s)  3D renormalized

     G-vector sticks info
     --------------------
     sticks:   dense  smooth     PW     G-vecs:    dense   smooth      PW
     Sum         499     397    121                15833    11263    1979

     Generating pointlists ...
     new r_m :   0.4125 (alat units)  2.2275 (a.u.) for type    1


     bravais-lattice index     =            4
     lattice parameter (alat)  =       5.4000  a.u.
     unit-cell volume          =     237.2800 (a.u.)^3
     number of atoms/cell      =            2
     number of atomic types    =            1
     number of electrons       =        32.00
     number of Kohn-Sham states=           20
     kinetic-energy cutoff     =      50.0000  Ry
     charge density cutoff     =     250.0000  Ry
     convergence threshold     =      1.0E-08
     mixing beta               =       0.7000
     number of iterations used =            8  plain     mixing
     Exchange-correlation      =  SLA  PW   PBX  PBC ( 1  4  3  4 0 0)

     celldm(1)=   5.400000  celldm(2)=   0.000000  celldm(3)=   1.740000
     celldm(4)=   0.000000  celldm(5)=   0.000000  celldm(6)=   0.000000

     crystal axes: (cart. coord. in units of alat)
               a(1) = (   1.000000   0.000000   0.000000 )  
               a(2) = (  -0.500000   0.866025   0.000000 )  
               a(3) = (   0.000000   0.000000   1.740000 )  

     reciprocal axes: (cart. coord. in units 2 pi/alat)
               b(1) = (  1.000000  0.577350 -0.000000 )  
               b(2) = (  0.000000  1.154701  0.000000 )  
               b(3) = (  0.000000 -0.000000  0.574713 )  


     PseudoPot. # 1 for Fe read from file:
     ./Fe.pbe-spn-kjpaw_psl.0.2.1.UPF
     MD5 check sum: a0a08122d52b112de96d1da1d7dd020f
     Pseudo is Projector augmented-wave + core cor, Zval = 16.0
     Generated using "atomic" code by A. Dal Corso  v.5.0.2 svn rev. 9415
     Shape of augmentation charge: PSQ
     Using radial grid of 1191 points,  6 beta functions with: 
                l(1) =   0
                l(2) =   0
                l(3) =   1
                l(4) =   1
                l(5) =   2
                l(6) =   2
     Q(r) pseudized with 0 coefficients 


     atomic species   valence    mass     pseudopotential
        Fe            16.00    55.85000     Fe( 1.00)

     Starting magnetic structure 
     atomic species   magnetization
        Fe           0.700

     24 Sym. Ops., with inversion, found (12 have fractional translation)



   Cartesian axes

     site n.     atom                  positions (alat units)
         1           Fe  tau(   1) = (  -0.0000000   0.5773503   0.4350000  )
         2           Fe  tau(   2) = (   0.5000000   0.2886751   1.3050000  )

     number of k points=    72  Marzari-Vanderbilt smearing, width (Ry)=  0.0250
                       cart. coord. in units 2pi/alat
        k(    1) = (   0.0000000   0.0000000   0.0000000), wk =   0.0024691
        k(    2) = (   0.0000000   0.0000000   0.1149425), wk =   0.0049383
        k(    3) = (   0.0000000   0.0000000   0.2298851), wk =   0.0049383
        k(    4) = (   0.0000000   0.1283001   0.0000000), wk =   0.0148148
        k(    5) = (   0.0000000   0.1283001   0.1149425), wk =   0.0296296
        k(    6) = (   0.0000000   0.1283001   0.2298851), wk =   0.0296296
        k(    7) = (   0.0000000   0.2566001   0.0000000), wk =   0.0148148
        k(    8) = (   0.0000000   0.2566001   0.1149425), wk =   0.0296296
        k(    9) = (   0.0000000   0.2566001   0.2298851), wk =   0.0296296
        k(   10) = (   0.0000000   0.3849002   0.0000000), wk =   0.0148148
        k(   11) = (   0.0000000   0.3849002   0.1149425), wk =   0.0296296
        k(   12) = (   0.0000000   0.3849002   0.2298851), wk =   0.0296296
        k(   13) = (   0.0000000   0.5132002   0.0000000), wk =   0.0148148
        k(   14) = (   0.0000000   0.5132002   0.1149425), wk =   0.0296296
        k(   15) = (   0.0000000   0.5132002   0.2298851), wk =   0.0296296
        k(   16) = (   0.1111111   0.1924501   0.0000000), wk =   0.0148148
        k(   17) = (   0.1111111   0.1924501   0.1149425), wk =   0.0296296
        k(   18) = (   0.1111111   0.1924501   0.2298851), wk =   0.0296296
        k(   19) = (   0.1111111   0.3207501   0.0000000), wk =   0.0296296
        k(   20) = (   0.1111111   0.3207501   0.1149425), wk =   0.0592593
        k(   21) = (   0.1111111   0.3207501   0.2298851), wk =   0.0592593
        k(   22) = (   0.1111111   0.4490502   0.0000000), wk =   0.0296296
        k(   23) = (   0.1111111   0.4490502   0.1149425), wk =   0.0592593
        k(   24) = (   0.1111111   0.4490502   0.2298851), wk =   0.0592593
        k(   25) = (   0.1111111   0.5773503   0.0000000), wk =   0.0148148
        k(   26) = (   0.1111111   0.5773503   0.1149425), wk =   0.0296296
        k(   27) = (   0.1111111   0.5773503   0.2298851), wk =   0.0296296
        k(   28) = (   0.2222222   0.3849002   0.0000000), wk =   0.0148148
        k(   29) = (   0.2222222   0.3849002   0.1149425), wk =   0.0296296
        k(   30) = (   0.2222222   0.3849002   0.2298851), wk =   0.0296296
        k(   31) = (   0.2222222   0.5132002   0.0000000), wk =   0.0296296
        k(   32) = (   0.2222222   0.5132002   0.1149425), wk =   0.0592593
        k(   33) = (   0.2222222   0.5132002   0.2298851), wk =   0.0592593
        k(   34) = (   0.3333333   0.5773503   0.0000000), wk =   0.0049383
        k(   35) = (   0.3333333   0.5773503   0.1149425), wk =   0.0098765
        k(   36) = (   0.3333333   0.5773503   0.2298851), wk =   0.0098765
        k(   37) = (   0.0000000   0.0000000   0.0000000), wk =   0.0024691
        k(   38) = (   0.0000000   0.0000000   0.1149425), wk =   0.0049383
        k(   39) = (   0.0000000   0.0000000   0.2298851), wk =   0.0049383
        k(   40) = (   0.0000000   0.1283001   0.0000000), wk =   0.0148148
        k(   41) = (   0.0000000   0.1283001   0.1149425), wk =   0.0296296
        k(   42) = (   0.0000000   0.1283001   0.2298851), wk =   0.0296296
        k(   43) = (   0.0000000   0.2566001   0.0000000), wk =   0.0148148
        k(   44) = (   0.0000000   0.2566001   0.1149425), wk =   0.0296296
        k(   45) = (   0.0000000   0.2566001   0.2298851), wk =   0.0296296
        k(   46) = (   0.0000000   0.3849002   0.0000000), wk =   0.0148148
        k(   47) = (   0.0000000   0.3849002   0.1149425), wk =   0.0296296
        k(   48) = (   0.0000000   0.3849002   0.2298851), wk =   0.0296296
        k(   49) = (   0.0000000   0.5132002   0.0000000), wk =   0.0148148
        k(   50) = (   0.0000000   0.5132002   0.1149425), wk =   0.0296296
        k(   51) = (   0.0000000   0.5132002   0.2298851), wk =   0.0296296
        k(   52) = (   0.1111111   0.1924501   0.0000000), wk =   0.0148148
        k(   53) = (   0.1111111   0.1924501   0.1149425), wk =   0.0296296
        k(   54) = (   0.1111111   0.1924501   0.2298851), wk =   0.0296296
        k(   55) = (   0.1111111   0.3207501   0.0000000), wk =   0.0296296
        k(   56) = (   0.1111111   0.3207501   0.1149425), wk =   0.0592593
        k(   57) = (   0.1111111   0.3207501   0.2298851), wk =   0.0592593
        k(   58) = (   0.1111111   0.4490502   0.0000000), wk =   0.0296296
        k(   59) = (   0.1111111   0.4490502   0.1149425), wk =   0.0592593
        k(   60) = (   0.1111111   0.4490502   0.2298851), wk =   0.0592593
        k(   61) = (   0.1111111   0.5773503   0.0000000), wk =   0.0148148
        k(   62) = (   0.1111111   0.5773503   0.1149425), wk =   0.0296296
        k(   63) = (   0.1111111   0.5773503   0.2298851), wk =   0.0296296
        k(   64) = (   0.2222222   0.3849002   0.0000000), wk =   0.0148148
        k(   65) = (   0.2222222   0.3849002   0.1149425), wk =   0.0296296
        k(   66) = (   0.2222222   0.3849002   0.2298851), wk =   0.0296296
        k(   67) = (   0.2222222   0.5132002   0.0000000), wk =   0.0296296
        k(   68) = (   0.2222222   0.5132002   0.1149425), wk =   0.0592593
        k(   69) = (   0.2222222   0.5132002   0.2298851), wk =   0.0592593
        k(   70) = (   0.3333333   0.5773503   0.0000000), wk =   0.0049383
        k(   71) = (   0.3333333   0.5773503   0.1149425), wk =   0.0098765
        k(   72) = (   0.3333333   0.5773503   0.2298851), wk =   0.0098765

     Dense  grid:    15833 G-vectors     FFT dimensions: (  27,  27,  48)

     Smooth grid:    11263 G-vectors     FFT dimensions: (  25,  25,  45)

     Largest allocated arrays     est. size (Mb)     dimensions
        Kohn-Sham Wavefunctions         0.44 Mb     (    1434,   20)
        NL pseudopotentials             0.79 Mb     (    1434,   36)
        Each V/rho on FFT grid          1.07 Mb     (   34992,   2)
        Each G-vector array             0.12 Mb     (   15833)
        G-vector shells                 0.01 Mb     (     829)
     Largest temporary arrays     est. size (Mb)     dimensions
        Auxiliary wavefunctions         1.75 Mb     (    1434,   80)
        Each subspace H/S matrix        0.10 Mb     (      80,   80)
        Each <psi_i|beta_j> matrix      0.01 Mb     (      36,   20)
        Arrays for rho mixing           4.27 Mb     (   34992,    8)

     Check: negative/imaginary core charge=   -0.000319    0.000000

     Initial potential from superposition of free atoms

     starting charge   31.99912, renormalised to   32.00000
     Starting wfc are   26 randomized atomic wfcs

     total cpu time spent up to now is        4.8 secs

     Self-consistent Calculation

     iteration #  1     ecut=    50.00 Ry     beta=0.70
     Davidson diagonalization with overlap
     ethr =  1.00E-02,  avg # of iterations =  2.0

     negative rho (up, down):  0.000E+00 1.077E-03

     Magnetic moment per site:
     atom:    1    charge:   14.5962    magn:    5.9398    constr:    0.0000
     atom:    2    charge:   14.5962    magn:    5.9398    constr:    0.0000

     total cpu time spent up to now is       11.9 secs

     total energy              =    -657.96595891 Ry
     Harris-Foulkes estimate   =    -656.24618881 Ry
     estimated scf accuracy    <       2.84089317 Ry

     total magnetization       =     8.00 Bohr mag/cell
     absolute magnetization    =     8.26 Bohr mag/cell

     iteration #  2     ecut=    50.00 Ry     beta=0.70
     Davidson diagonalization with overlap
     ethr =  8.88E-03,  avg # of iterations =  1.6

     negative rho (up, down):  0.000E+00 1.063E-03

     Magnetic moment per site:
     atom:    1    charge:   14.8205    magn:    4.0175    constr:    0.0000
     atom:    2    charge:   14.8205    magn:    4.0175    constr:    0.0000

     total cpu time spent up to now is       18.5 secs

     total energy              =    -658.14626222 Ry
     Harris-Foulkes estimate   =    -658.17852544 Ry
     estimated scf accuracy    <       0.81729976 Ry

     total magnetization       =     6.62 Bohr mag/cell
     absolute magnetization    =     6.88 Bohr mag/cell

     iteration #  3     ecut=    50.00 Ry     beta=0.70
     Davidson diagonalization with overlap
     ethr =  2.55E-03,  avg # of iterations =  3.1

     negative rho (up, down):  0.000E+00 1.240E-03

     Magnetic moment per site:
     atom:    1    charge:   14.7053    magn:    3.0564    constr:    0.0000
     atom:    2    charge:   14.7053    magn:    3.0564    constr:    0.0000

     total cpu time spent up to now is       26.2 secs

     total energy              =    -658.17636192 Ry
     Harris-Foulkes estimate   =    -658.64527065 Ry
     estimated scf accuracy    <       1.31048924 Ry

     total magnetization       =     6.65 Bohr mag/cell
     absolute magnetization    =     6.92 Bohr mag/cell

     iteration #  4     ecut=    50.00 Ry     beta=0.70
     Davidson diagonalization with overlap
     ethr =  2.55E-03,  avg # of iterations =  2.7

     negative rho (up, down):  0.000E+00 1.058E-03

     Magnetic moment per site:
     atom:    1    charge:   14.7579    magn:    3.0694    constr:    0.0000
     atom:    2    charge:   14.7579    magn:    3.0694    constr:    0.0000

     total cpu time spent up to now is       33.6 secs

     total energy              =    -658.40537421 Ry
     Harris-Foulkes estimate   =    -658.40567941 Ry
     estimated scf accuracy    <       0.00641207 Ry

     total magnetization       =     5.99 Bohr mag/cell
     absolute magnetization    =     6.32 Bohr mag/cell

     iteration #  5     ecut=    50.00 Ry     beta=0.70
     Davidson diagonalization with overlap
     ethr =  2.00E-05,  avg # of iterations =  3.3

     negative rho (up, down):  0.000E+00 1.054E-03

     Magnetic moment per site:
     atom:    1    charge:   14.7525    magn:    3.0685    constr:    0.0000
     atom:    2    charge:   14.7525    magn:    3.0685    constr:    0.0000

     total cpu time spent up to now is       43.4 secs

     total energy              =    -658.41186496 Ry
     Harris-Foulkes estimate   =    -658.41107595 Ry
     estimated scf accuracy    <       0.00072662 Ry

     total magnetization       =     6.02 Bohr mag/cell
     absolute magnetization    =     6.32 Bohr mag/cell

     iteration #  6     ecut=    50.00 Ry     beta=0.70
     Davidson diagonalization with overlap
     ethr =  2.27E-06,  avg # of iterations =  2.2

     negative rho (up, down):  0.000E+00 9.944E-04

     Magnetic moment per site:
     atom:    1    charge:   14.7516    magn:    3.0555    constr:    0.0000
     atom:    2    charge:   14.7516    magn:    3.0555    constr:    0.0000

     total cpu time spent up to now is       50.1 secs

     total energy              =    -658.40916989 Ry
     Harris-Foulkes estimate   =    -658.41206901 Ry
     estimated scf accuracy    <       0.00046586 Ry

     total magnetization       =     6.01 Bohr mag/cell
     absolute magnetization    =     6.31 Bohr mag/cell

     iteration #  7     ecut=    50.00 Ry     beta=0.70
     Davidson diagonalization with overlap
     ethr =  1.46E-06,  avg # of iterations =  3.5

     negative rho (up, down):  0.000E+00 1.031E-03

     Magnetic moment per site:
     atom:    1    charge:   14.7522    magn:    3.0644    constr:    0.0000
     atom:    2    charge:   14.7522    magn:    3.0644    constr:    0.0000

     total cpu time spent up to now is       59.5 secs

     total energy              =    -658.41271403 Ry
     Harris-Foulkes estimate   =    -658.41043045 Ry
     estimated scf accuracy    <       0.00069622 Ry

     total magnetization       =     6.00 Bohr mag/cell
     absolute magnetization    =     6.26 Bohr mag/cell

     iteration #  8     ecut=    50.00 Ry     beta=0.70
     Davidson diagonalization with overlap
     ethr =  1.46E-06,  avg # of iterations =  2.4

     negative rho (up, down):  0.000E+00 1.030E-03

     Magnetic moment per site:
     atom:    1    charge:   14.7525    magn:    3.0638    constr:    0.0000
     atom:    2    charge:   14.7525    magn:    3.0638    constr:    0.0000

     total cpu time spent up to now is       67.5 secs

     total energy              =    -658.41293659 Ry
     Harris-Foulkes estimate   =    -658.41294514 Ry
     estimated scf accuracy    <       0.00021571 Ry

     total magnetization       =     6.00 Bohr mag/cell
     absolute magnetization    =     6.28 Bohr mag/cell

     iteration #  9     ecut=    50.00 Ry     beta=0.70
     Davidson diagonalization with overlap
     ethr =  6.74E-07,  avg # of iterations =  1.0

     negative rho (up, down):  0.000E+00 1.028E-03

     Magnetic moment per site:
     atom:    1    charge:   14.7527    magn:    3.0618    constr:    0.0000
     atom:    2    charge:   14.7527    magn:    3.0618    constr:    0.0000

     total cpu time spent up to now is       73.8 secs

     total energy              =    -658.41301892 Ry
     Harris-Foulkes estimate   =    -658.41294224 Ry
     estimated scf accuracy    <       0.00021579 Ry

     total magnetization       =     6.00 Bohr mag/cell
     absolute magnetization    =     6.28 Bohr mag/cell

     iteration # 10     ecut=    50.00 Ry     beta=0.70
     Davidson diagonalization with overlap
     ethr =  6.74E-07,  avg # of iterations =  1.1

     negative rho (up, down):  0.000E+00 1.017E-03

     Magnetic moment per site:
     atom:    1    charge:   14.7539    magn:    3.0507    constr:    0.0000
     atom:    2    charge:   14.7539    magn:    3.0507    constr:    0.0000

     total cpu time spent up to now is       80.1 secs

     total energy              =    -658.41294034 Ry
     Harris-Foulkes estimate   =    -658.41302492 Ry
     estimated scf accuracy    <       0.00014608 Ry

     total magnetization       =     6.00 Bohr mag/cell
     absolute magnetization    =     6.27 Bohr mag/cell

     iteration # 11     ecut=    50.00 Ry     beta=0.70
     Davidson diagonalization with overlap
     ethr =  4.57E-07,  avg # of iterations =  2.8

     negative rho (up, down):  0.000E+00 1.018E-03

     Magnetic moment per site:
     atom:    1    charge:   14.7536    magn:    3.0527    constr:    0.0000
     atom:    2    charge:   14.7536    magn:    3.0527    constr:    0.0000

     total cpu time spent up to now is       88.3 secs

     total energy              =    -658.41319829 Ry
     Harris-Foulkes estimate   =    -658.41306606 Ry
     estimated scf accuracy    <       0.00004479 Ry

     total magnetization       =     5.99 Bohr mag/cell
     absolute magnetization    =     6.26 Bohr mag/cell

     iteration # 12     ecut=    50.00 Ry     beta=0.70
     Davidson diagonalization with overlap
     ethr =  1.40E-07,  avg # of iterations =  2.0

     negative rho (up, down):  0.000E+00 1.018E-03

     Magnetic moment per site:
     atom:    1    charge:   14.7531    magn:    3.0529    constr:    0.0000
     atom:    2    charge:   14.7531    magn:    3.0529    constr:    0.0000

     total cpu time spent up to now is       94.9 secs

     total energy              =    -658.41321255 Ry
     Harris-Foulkes estimate   =    -658.41320191 Ry
     estimated scf accuracy    <       0.00000187 Ry

     total magnetization       =     5.99 Bohr mag/cell
     absolute magnetization    =     6.26 Bohr mag/cell

     iteration # 13     ecut=    50.00 Ry     beta=0.70
     Davidson diagonalization with overlap
     ethr =  5.85E-09,  avg # of iterations =  3.3

     negative rho (up, down):  0.000E+00 1.018E-03

     Magnetic moment per site:
     atom:    1    charge:   14.7533    magn:    3.0532    constr:    0.0000
     atom:    2    charge:   14.7533    magn:    3.0532    constr:    0.0000

     total cpu time spent up to now is      103.8 secs

     total energy              =    -658.41321395 Ry
     Harris-Foulkes estimate   =    -658.41321410 Ry
     estimated scf accuracy    <       0.00000281 Ry

     total magnetization       =     5.99 Bohr mag/cell
     absolute magnetization    =     6.26 Bohr mag/cell

     iteration # 14     ecut=    50.00 Ry     beta=0.70
     Davidson diagonalization with overlap
     ethr =  5.85E-09,  avg # of iterations =  1.8

     negative rho (up, down):  0.000E+00 1.018E-03

     Magnetic moment per site:
     atom:    1    charge:   14.7534    magn:    3.0527    constr:    0.0000
     atom:    2    charge:   14.7534    magn:    3.0527    constr:    0.0000

     total cpu time spent up to now is      110.4 secs

     total energy              =    -658.41321451 Ry
     Harris-Foulkes estimate   =    -658.41321412 Ry
     estimated scf accuracy    <       0.00000107 Ry

     total magnetization       =     5.99 Bohr mag/cell
     absolute magnetization    =     6.26 Bohr mag/cell

     iteration # 15     ecut=    50.00 Ry     beta=0.70
     Davidson diagonalization with overlap
     ethr =  3.35E-09,  avg # of iterations =  2.1

     negative rho (up, down):  0.000E+00 1.018E-03

     Magnetic moment per site:
     atom:    1    charge:   14.7534    magn:    3.0527    constr:    0.0000
     atom:    2    charge:   14.7534    magn:    3.0527    constr:    0.0000

     total cpu time spent up to now is      117.6 secs

     total energy              =    -658.41321484 Ry
     Harris-Foulkes estimate   =    -658.41321479 Ry
     estimated scf accuracy    <       0.00000004 Ry

     total magnetization       =     5.99 Bohr mag/cell
     absolute magnetization    =     6.26 Bohr mag/cell

     iteration # 16     ecut=    50.00 Ry     beta=0.70
     Davidson diagonalization with overlap
     ethr =  1.12E-10,  avg # of iterations =  3.2

     negative rho (up, down):  0.000E+00 1.018E-03

     Magnetic moment per site:
     atom:    1    charge:   14.7534    magn:    3.0524    constr:    0.0000
     atom:    2    charge:   14.7534    magn:    3.0524    constr:    0.0000

     total cpu time spent up to now is      126.8 secs

     total energy              =    -658.41321484 Ry
     Harris-Foulkes estimate   =    -658.41321486 Ry
     estimated scf accuracy    <       0.00000015 Ry

     total magnetization       =     5.99 Bohr mag/cell
     absolute magnetization    =     6.26 Bohr mag/cell

     iteration # 17     ecut=    50.00 Ry     beta=0.70
     Davidson diagonalization with overlap
     ethr =  1.12E-10,  avg # of iterations =  3.1

     negative rho (up, down):  0.000E+00 1.018E-03

     Magnetic moment per site:
     atom:    1    charge:   14.7534    magn:    3.0524    constr:    0.0000
     atom:    2    charge:   14.7534    magn:    3.0524    constr:    0.0000

     total cpu time spent up to now is      135.6 secs

     End of self-consistent calculation

 ------ SPIN UP ------------


          k = 0.0000 0.0000 0.0000 (  1377 PWs)   bands (ev):

   -77.7273 -77.7206 -43.7782 -43.7782 -43.7698 -43.7698 -43.7045 -43.6386
     4.0331   7.0558   8.3975   8.3975   8.5173   8.5173   8.6042   8.6379
     8.6379   9.0851   9.0851  10.3222

          k = 0.0000 0.0000 0.1149 (  1395 PWs)   bands (ev):

   -77.7269 -77.7215 -43.7778 -43.7778 -43.7711 -43.7711 -43.6981 -43.6462
     4.2894   6.8536   8.3619   8.3619   8.4776   8.4776   8.5697   8.7285
     8.7285   9.0716   9.0716   9.3689

          k = 0.0000 0.0000 0.2299 (  1401 PWs)   bands (ev):

   -77.7253 -77.7232 -43.7757 -43.7757 -43.7734 -43.7734 -43.6828 -43.6631
     5.0214   6.0552   8.3490   8.3490   8.3991   8.3991   8.5117   8.6174
     8.8847   8.8847   9.0099   9.0099

          k = 0.0000 0.1283 0.0000 (  1391 PWs)   bands (ev):

   -77.7266 -77.7197 -43.7872 -43.7808 -43.7799 -43.7717 -43.7017 -43.6404
     4.3563   7.2624   8.2858   8.4526   8.4554   8.5170   8.5800   8.6275
     8.6760   8.7193   9.1002  11.1501

          k = 0.0000 0.1283 0.1149 (  1399 PWs)   bands (ev):

   -77.7260 -77.7206 -43.7867 -43.7806 -43.7802 -43.7731 -43.6960 -43.6466
     4.6071   7.0820   8.2712   8.3064   8.4513   8.4798   8.5775   8.6137
     8.7133   8.8143   9.0827  10.1078

          k = 0.0000 0.1283 0.2299 (  1418 PWs)   bands (ev):

   -77.7245 -77.7225 -43.7856 -43.7830 -43.7785 -43.7758 -43.6810 -43.6623
     5.3207   6.3228   8.2031   8.2519   8.4385   8.4398   8.4952   8.5080
     8.8789   9.0037   9.0122   9.3212

          k = 0.0000 0.2566 0.0000 (  1401 PWs)   bands (ev):

   -77.7236 -77.7180 -43.8107 -43.8030 -43.7875 -43.7771 -43.6940 -43.6425
     5.2719   7.6027   7.8775   8.1924   8.3739   8.4510   8.4622   8.8344
     8.9176   9.0056   9.1218  12.6744

          k = 0.0000 0.2566 0.1149 (  1421 PWs)   bands (ev):

   -77.7232 -77.7189 -43.8104 -43.8041 -43.7872 -43.7784 -43.6896 -43.6479
     5.4935   7.4719   7.8612   8.1636   8.3506   8.4814   8.5118   8.8291
     8.8957   9.0385   9.1134  11.0855

          k = 0.0000 0.2566 0.2299 (  1410 PWs)   bands (ev):

   -77.7217 -77.7201 -43.8086 -43.8057 -43.7847 -43.7813 -43.6759 -43.6599
     6.1105   6.9024   7.9574   8.0901   8.3975   8.4871   8.5712   8.7045
     8.9727   9.0626   9.2360   9.8212

          k = 0.0000 0.3849 0.0000 (  1424 PWs)   bands (ev):

   -77.7202 -77.7162 -43.8365 -43.8288 -43.7955 -43.7833 -43.6845 -43.6468
     6.4772   7.4643   7.4865   8.2773   8.2933   8.3214   8.7318   9.1304
     9.2224   9.2723   9.5436  14.4623

          k = 0.0000 0.3849 0.1149 (  1421 PWs)   bands (ev):

   -77.7198 -77.7165 -43.8364 -43.8297 -43.7941 -43.7844 -43.6805 -43.6500
     6.5692   7.3606   7.6212   7.9949   8.3849   8.6666   8.8148   9.0171
     9.2359   9.2960   9.4831  12.2858

          k = 0.0000 0.3849 0.2299 (  1422 PWs)   bands (ev):

   -77.7188 -77.7175 -43.8350 -43.8324 -43.7914 -43.7875 -43.6703 -43.6591
     6.8073   7.1130   7.7898   7.8972   8.5588   8.7940   8.9381   9.1457
     9.2662   9.2947   9.5170  10.5774

          k = 0.0000 0.5132 0.0000 (  1418 PWs)   bands (ev):

   -77.7176 -77.7150 -43.8538 -43.8450 -43.8001 -43.7870 -43.6753 -43.6512
     7.1046   7.2656   7.3009   8.1603   8.2428   8.7957   8.9977   9.1307
     9.4835   9.5321  10.7288  13.3949

          k = 0.0000 0.5132 0.1149 (  1423 PWs)   bands (ev):

   -77.7175 -77.7152 -43.8534 -43.8464 -43.7989 -43.7882 -43.6727 -43.6536
     6.9539   7.2553   7.5433   7.8803   8.3177   8.9621   9.0320   9.3602
     9.4905   9.5304  10.6746  13.0259

          k = 0.0000 0.5132 0.2299 (  1414 PWs)   bands (ev):

   -77.7166 -77.7158 -43.8516 -43.8493 -43.7954 -43.7913 -43.6657 -43.6585
     6.9377   7.1004   7.7084   7.7465   8.5217   8.7926   9.3148   9.5056
     9.5212   9.6807  10.9014  11.9049

          k = 0.1111 0.1925 0.0000 (  1418 PWs)   bands (ev):

   -77.7248 -77.7188 -43.8025 -43.7972 -43.7853 -43.7779 -43.6967 -43.6421
     4.9795   7.5876   8.0460   8.1180   8.3678   8.3850   8.6080   8.7615
     8.7783   8.9668   9.1004  12.2289

          k = 0.1111 0.1925 0.1149 (  1412 PWs)   bands (ev):

   -77.7242 -77.7192 -43.8018 -43.7974 -43.7843 -43.7785 -43.6915 -43.6474
     5.2140   7.4394   7.9705   8.1252   8.3760   8.4106   8.5565   8.7375
     8.8500   8.9837   9.0968  10.8182

          k = 0.1111 0.1925 0.2299 (  1409 PWs)   bands (ev):

   -77.7226 -77.7207 -43.8004 -43.7987 -43.7828 -43.7807 -43.6774 -43.6607
     5.8750   6.7689   8.0212   8.1203   8.3444   8.3947   8.5633   8.6557
     8.9604   9.0527   9.1692   9.6834

          k = 0.1111 0.3208 0.0000 (  1415 PWs)   bands (ev):

   -77.7213 -77.7167 -43.8244 -43.8190 -43.7944 -43.7848 -43.6878 -43.6454
     6.0938   7.6214   7.7125   8.0792   8.2166   8.4235   8.4691   9.0053
     9.0922   9.2103   9.4445  13.8587

          k = 0.1111 0.3208 0.1149 (  1409 PWs)   bands (ev):

   -77.7208 -77.7171 -43.8241 -43.8194 -43.7933 -43.7857 -43.6835 -43.6489
     6.2624   7.5112   7.7683   8.0499   8.3115   8.4464   8.4578   8.9330
     9.1140   9.2538   9.4399  11.8662

          k = 0.1111 0.3208 0.2299 (  1403 PWs)   bands (ev):

   -77.7196 -77.7181 -43.8230 -43.8212 -43.7912 -43.7883 -43.6719 -43.6590
     6.6926   7.1759   7.8992   8.0203   8.3914   8.4402   8.5678   8.7510
     9.3128   9.3915   9.4415  10.3056

          k = 0.1111 0.4491 0.0000 (  1420 PWs)   bands (ev):

   -77.7182 -77.7152 -43.8447 -43.8374 -43.8027 -43.7909 -43.6782 -43.6504
     7.0869   7.3633   7.4956   8.1303   8.2925   8.3560   8.7582   9.0834
     9.3204   9.5430  10.2967  14.7923

          k = 0.1111 0.4491 0.1149 (  1420 PWs)   bands (ev):

   -77.7179 -77.7155 -43.8445 -43.8388 -43.8016 -43.7921 -43.6748 -43.6524
     7.0192   7.3930   7.6146   7.9225   8.2852   8.7067   8.8002   8.9849
     9.3443   9.5950  10.2975  13.2605

          k = 0.1111 0.4491 0.2299 (  1419 PWs)   bands (ev):

   -77.7172 -77.7162 -43.8434 -43.8412 -43.7989 -43.7952 -43.6667 -43.6586
     7.0479   7.2219   7.7844   7.8785   8.4120   8.6800   8.9368   8.9948
     9.5020   9.6606  10.5475  11.5900

          k = 0.1111 0.5774 0.0000 (  1426 PWs)   bands (ev):

   -77.7171 -77.7147 -43.8533 -43.8446 -43.8057 -43.7936 -43.6727 -43.6540
     7.2799   7.3177   7.3769   8.1395   8.1806   8.7138   8.8716   9.0791
     9.5038   9.6258  11.7461  12.7334

          k = 0.1111 0.5774 0.1149 (  1417 PWs)   bands (ev):

   -77.7167 -77.7148 -43.8529 -43.8458 -43.8047 -43.7947 -43.6700 -43.6547
     7.0787   7.3714   7.6260   7.8715   8.2110   8.9218   8.9549   9.0458
     9.5083   9.6827  11.8048  12.7062

          k = 0.1111 0.5774 0.2299 (  1415 PWs)   bands (ev):

   -77.7161 -77.7153 -43.8515 -43.8487 -43.8016 -43.7980 -43.6641 -43.6585
     7.0575   7.2199   7.7622   7.8038   8.3674   8.6751   9.1707   9.2222
     9.5654   9.7180  12.0931  12.5248

          k = 0.2222 0.3849 0.0000 (  1416 PWs)   bands (ev):

   -77.7184 -77.7153 -43.8346 -43.8339 -43.8054 -43.7975 -43.6791 -43.6498
     7.1618   7.4472   7.8029   7.9079   8.0598   8.3498   8.5446   9.0305
     9.1763   9.5882  10.2618  15.2639

          k = 0.2222 0.3849 0.1149 (  1426 PWs)   bands (ev):

   -77.7183 -77.7157 -43.8350 -43.8345 -43.8054 -43.7988 -43.6756 -43.6522
     7.1744   7.4142   7.8149   7.9797   8.2207   8.2985   8.5392   8.9168
     9.2580   9.6268  10.3018  13.2210

          k = 0.2222 0.3849 0.2299 (  1410 PWs)   bands (ev):

   -77.7173 -77.7162 -43.8351 -43.8350 -43.8034 -43.8008 -43.6670 -43.6582
     7.2338   7.3311   7.9133   8.0348   8.2936   8.3757   8.5598   8.6953
     9.5226   9.6674  10.5672  11.5408

          k = 0.2222 0.5132 0.0000 (  1432 PWs)   bands (ev):

   -77.7164 -77.7149 -43.8444 -43.8374 -43.8170 -43.8069 -43.6703 -43.6556
     7.3742   7.6400   7.6898   8.0438   8.1716   8.1822   8.7179   8.9904
     9.4039   9.6662  11.8019  14.3435

          k = 0.2222 0.5132 0.1149 (  1422 PWs)   bands (ev):

   -77.7162 -77.7149 -43.8436 -43.8380 -43.8162 -43.8080 -43.6678 -43.6561
     7.3334   7.6707   7.7347   7.9278   8.1047   8.4094   8.7369   8.8921
     9.4533   9.6993  11.9430  14.2667

          k = 0.2222 0.5132 0.2299 (  1429 PWs)   bands (ev):

   -77.7159 -77.7153 -43.8424 -43.8403 -43.8143 -43.8112 -43.6633 -43.6587
     7.3476   7.4845   7.8717   8.0149   8.1202   8.3936   8.7730   8.7859
     9.5998   9.7139  12.4295  13.3688

          k = 0.3333 0.5774 0.0000 (  1434 PWs)   bands (ev):

   -77.7152 -77.7152 -43.8377 -43.8295 -43.8295 -43.8211 -43.6624 -43.6624
     7.4110   7.9014   7.9014   7.9582   8.0544   8.0544   8.6760   8.9454
     9.5532   9.5532  13.9565  14.1349

          k = 0.3333 0.5774 0.1149 (  1428 PWs)   bands (ev):

   -77.7151 -77.7151 -43.8360 -43.8298 -43.8298 -43.8222 -43.6615 -43.6615
     7.4850   7.8010   7.8010   7.9479   8.1544   8.1544   8.6578   8.8444
     9.5933   9.5933  14.2663  14.2663

          k = 0.3333 0.5774 0.2299 (  1434 PWs)   bands (ev):

   -77.7152 -77.7152 -43.8318 -43.8308 -43.8308 -43.8266 -43.6603 -43.6603
     7.6741   7.7100   7.7100   7.8672   8.2433   8.2433   8.6302   8.6790
     9.6605   9.6605  14.5960  14.5960

 ------ SPIN DOWN ----------


          k = 0.0000 0.0000 0.0000 (  1377 PWs)   bands (ev):

   -74.2514 -74.2435 -40.3559 -40.3559 -40.3551 -40.3464 -40.3464 -40.2776
     4.3481   8.1626  10.4240  10.4726  11.1562  11.1562  11.3237  11.3237
    12.3450  12.3450  12.9376  12.9376

          k = 0.0000 0.0000 0.1149 (  1395 PWs)   bands (ev):

   -74.2509 -74.2445 -40.3553 -40.3553 -40.3477 -40.3476 -40.3476 -40.2860
     4.6060   7.6585  10.1948  10.3639  11.1525  11.1525  11.2909  11.2909
    12.4229  12.4229  12.8999  12.8999

          k = 0.0000 0.0000 0.2299 (  1401 PWs)   bands (ev):

   -74.2490 -74.2466 -40.3530 -40.3530 -40.3502 -40.3502 -40.3290 -40.3057
     5.3523   6.4798  10.0937  10.2185  11.1664  11.1664  11.2208  11.2208
    12.6021  12.6021  12.7831  12.7831

          k = 0.0000 0.1283 0.0000 (  1391 PWs)   bands (ev):

   -74.2504 -74.2426 -40.3666 -40.3590 -40.3580 -40.3517 -40.3486 -40.2792
     4.6723   8.4137  10.3331  10.4693  11.0587  11.2269  11.3010  11.4578
    12.2075  12.2574  12.9629  13.4011

          k = 0.0000 0.1283 0.1149 (  1399 PWs)   bands (ev):

   -74.2497 -74.2435 -40.3665 -40.3590 -40.3582 -40.3500 -40.3443 -40.2863
     4.9270   7.9306  10.1231  10.4186  11.0330  11.2060  11.2940  11.4237
    12.3057  12.3482  12.9130  13.0870

          k = 0.0000 0.1283 0.2299 (  1418 PWs)   bands (ev):

   -74.2479 -74.2456 -40.3651 -40.3620 -40.3561 -40.3530 -40.3263 -40.3043
     5.6634   6.7767  10.0963  10.2642  11.0363  11.1160  11.3027  11.3540
    12.5422  12.5545  12.7673  12.8064

          k = 0.0000 0.2566 0.0000 (  1401 PWs)   bands (ev):

   -74.2469 -74.2404 -40.3940 -40.3851 -40.3668 -40.3547 -40.3426 -40.2817
     5.6094   9.0230  10.1157  10.4403  10.8446  11.2112  11.6925  11.8134
    11.9113  12.0664  12.9980  14.5076

          k = 0.0000 0.2566 0.1149 (  1421 PWs)   bands (ev):

   -74.2464 -74.2413 -40.3941 -40.3867 -40.3662 -40.3561 -40.3365 -40.2876
     5.8508   8.6324   9.9936  10.4681  10.7826  11.1106  11.6685  11.7733
    12.0705  12.1944  12.9224  13.4857

          k = 0.0000 0.2566 0.2299 (  1410 PWs)   bands (ev):

   -74.2447 -74.2428 -40.3927 -40.3893 -40.3633 -40.3594 -40.3200 -40.3014
     6.5530   7.5945  10.0985  10.3625  10.7490  10.9225  11.6620  11.7071
    12.4225  12.4509  12.7197  12.8614

          k = 0.0000 0.3849 0.0000 (  1424 PWs)   bands (ev):

   -74.2428 -74.2383 -40.4246 -40.4155 -40.3758 -40.3617 -40.3310 -40.2866
     7.0166   9.4514  10.0013  10.2940  10.6852  11.5741  11.6769  11.8778
    12.1889  12.2545  13.0123  15.3859

          k = 0.0000 0.3849 0.1149 (  1421 PWs)   bands (ev):

   -74.2424 -74.2386 -40.4248 -40.4169 -40.3744 -40.3631 -40.3258 -40.2902
     7.2217   9.2801   9.8983  10.4195  10.5997  11.3129  11.9292  11.9574
    12.2100  12.2569  12.9090  13.9887

          k = 0.0000 0.3849 0.2299 (  1422 PWs)   bands (ev):

   -74.2413 -74.2398 -40.4238 -40.4207 -40.3711 -40.3666 -40.3133 -40.3001
     7.7979   8.5983  10.0429  10.3213  10.6933  10.9951  12.0427  12.1486
    12.3602  12.4066  12.6621  12.9636

          k = 0.0000 0.5132 0.0000 (  1418 PWs)   bands (ev):

   -74.2398 -74.2368 -40.4449 -40.4347 -40.3812 -40.3661 -40.3203 -40.2920
     8.4363   9.3638   9.9877  10.0999  10.7967  11.3394  11.7645  12.5289
    12.5322  12.5892  13.0133  14.5488

          k = 0.0000 0.5132 0.1149 (  1423 PWs)   bands (ev):

   -74.2396 -74.2371 -40.4448 -40.4366 -40.3799 -40.3675 -40.3167 -40.2943
     8.5370   9.3244   9.9196  10.1924  10.7878  11.5396  11.8611  12.3949
    12.5373  12.5774  12.8806  14.0833

          k = 0.0000 0.5132 0.2299 (  1414 PWs)   bands (ev):

   -74.2388 -74.2378 -40.4434 -40.4406 -40.3759 -40.3712 -40.3080 -40.2996
     8.7961   9.1084   9.9980  10.1801  11.0327  11.5502  12.1259  12.4514
    12.4566  12.5741  12.6382  13.1723

          k = 0.1111 0.1925 0.0000 (  1418 PWs)   bands (ev):

   -74.2481 -74.2413 -40.3841 -40.3783 -40.3639 -40.3554 -40.3457 -40.2812
     5.3041   8.8538  10.1700  10.4627  10.9884  11.0515  11.5834  11.7277
    11.9499  12.1791  12.9646  14.1762

          k = 0.1111 0.1925 0.1149 (  1412 PWs)   bands (ev):

   -74.2475 -74.2418 -40.3841 -40.3788 -40.3631 -40.3562 -40.3388 -40.2871
     5.5507   8.4272  10.0305  10.4674  10.8727  11.0556  11.5609  11.6827
    12.1248  12.2569  12.8980  13.3854

          k = 0.1111 0.1925 0.2299 (  1409 PWs)   bands (ev):

   -74.2457 -74.2436 -40.3830 -40.3808 -40.3614 -40.3588 -40.3217 -40.3022
     6.2657   7.3388  10.1043  10.3447  10.8101  10.9399  11.5625  11.6127
    12.4668  12.4699  12.7152  12.8615

          k = 0.1111 0.3208 0.0000 (  1415 PWs)   bands (ev):

   -74.2442 -74.2389 -40.4102 -40.4040 -40.3746 -40.3636 -40.3350 -40.2849
     6.4912   9.4401  10.0512  10.2702  10.8015  11.2472  11.6465  11.9721
    12.0281  12.1948  12.9549  15.3026

          k = 0.1111 0.3208 0.1149 (  1409 PWs)   bands (ev):

   -74.2436 -74.2393 -40.4104 -40.4050 -40.3736 -40.3648 -40.3293 -40.2889
     6.7164   9.1784   9.9385  10.3436  10.7384  11.0546  11.8423  11.9069
    12.1646  12.2222  12.8697  13.8726

          k = 0.1111 0.3208 0.2299 (  1403 PWs)   bands (ev):

   -74.2423 -74.2406 -40.4098 -40.4076 -40.3712 -40.3678 -40.3152 -40.3001
     7.3603   8.2967  10.1043  10.4357  10.5320  10.7920  11.9067  12.0315
    12.3878  12.4295  12.6662  12.9800

          k = 0.1111 0.4491 0.0000 (  1420 PWs)   bands (ev):

   -74.2405 -74.2372 -40.4343 -40.4257 -40.3844 -40.3708 -40.3235 -40.2907
     7.9718   9.5664  10.0407  10.1133  10.8070  11.4042  11.7415  11.8012
    12.3701  12.7385  12.9427  15.6438

          k = 0.1111 0.4491 0.1149 (  1420 PWs)   bands (ev):

   -74.2402 -74.2375 -40.4344 -40.4276 -40.3832 -40.3722 -40.3191 -40.2929
     8.1338   9.5219   9.8935  10.2912  10.7049  11.2835  11.8026  11.9471
    12.4412  12.6140  12.9142  14.5515

          k = 0.1111 0.4491 0.2299 (  1419 PWs)   bands (ev):

   -74.2394 -74.2383 -40.4336 -40.4310 -40.3801 -40.3759 -40.3091 -40.2995
     8.5710   9.1242  10.0365  10.2981  10.7022  10.9907  11.9889  12.2697
    12.3322  12.5688  12.9083  13.4029

          k = 0.1111 0.5774 0.0000 (  1426 PWs)   bands (ev):

   -74.2391 -74.2365 -40.4443 -40.4342 -40.3880 -40.3738 -40.3169 -40.2949
     8.9128   9.4061   9.9824  10.0626  10.8860  11.3023  11.6445  12.3302
    12.3710  12.9365  13.3503  14.2705

          k = 0.1111 0.5774 0.1149 (  1417 PWs)   bands (ev):

   -74.2387 -74.2367 -40.4442 -40.4359 -40.3869 -40.3752 -40.3135 -40.2957
     8.9731   9.4057   9.9548  10.1739  10.8042  11.3788  11.7744  12.3544
    12.3664  12.7213  13.3424  14.1542

          k = 0.1111 0.5774 0.2299 (  1415 PWs)   bands (ev):

   -74.2381 -74.2373 -40.4430 -40.4398 -40.3835 -40.3791 -40.3060 -40.2995
     9.1245   9.3057  10.0467  10.2414  10.8884  11.2867  12.0616  12.3116
    12.3674  12.4459  13.4102  13.7944

          k = 0.2222 0.3849 0.0000 (  1416 PWs)   bands (ev):

   -74.2408 -74.2372 -40.4227 -40.4215 -40.3877 -40.3784 -40.3245 -40.2900
     7.7952   9.7909   9.9949  10.0984  10.9246  11.3693  11.4052  11.7354
    12.2925  12.8088  12.8682  16.1742

          k = 0.2222 0.3849 0.1149 (  1426 PWs)   bands (ev):

   -74.2406 -74.2377 -40.4232 -40.4225 -40.3877 -40.3800 -40.3200 -40.2925
     7.9800   9.8110   9.9042  10.0659  10.9023  10.9761  11.6483  11.8334
    12.4393  12.5740  12.9608  14.7443

          k = 0.2222 0.3849 0.2299 (  1410 PWs)   bands (ev):

   -74.2395 -74.2384 -40.4238 -40.4237 -40.3858 -40.3827 -40.3093 -40.2990
     8.4952   9.1970  10.1407  10.2496  10.5971  10.6492  11.8252  12.1935
    12.3347  12.5654  13.0476  13.5609

          k = 0.2222 0.5132 0.0000 (  1432 PWs)   bands (ev):

   -74.2384 -74.2366 -40.4337 -40.4254 -40.4013 -40.3895 -40.3142 -40.2968
     9.0394   9.7264   9.8759  10.2181  11.0824  11.2918  11.4588  11.7809
    12.2175  12.8117  13.6866  15.5177

          k = 0.2222 0.5132 0.1149 (  1422 PWs)   bands (ev):

   -74.2381 -74.2366 -40.4332 -40.4267 -40.4006 -40.3910 -40.3109 -40.2971
     9.1533   9.7924   9.8849  10.2538  10.8827  11.0938  11.5343  11.9520
    12.3329  12.5824  13.8065  15.3766

          k = 0.2222 0.5132 0.2299 (  1429 PWs)   bands (ev):

   -74.2378 -74.2372 -40.4322 -40.4298 -40.3986 -40.3949 -40.3048 -40.2995
     9.4303   9.7041  10.0971  10.3610  10.5558  10.7336  11.7615  12.1359
    12.2563  12.4215  14.1098  14.7110

          k = 0.3333 0.5774 0.0000 (  1434 PWs)   bands (ev):

   -74.2369 -74.2369 -40.4255 -40.4161 -40.4161 -40.4061 -40.3049 -40.3049
     9.6358   9.6358   9.8485  10.3649  11.2596  11.2596  11.3170  11.8780
    11.8780  12.7502  15.2360  15.3904

          k = 0.3333 0.5774 0.1149 (  1428 PWs)   bands (ev):

   -74.2369 -74.2369 -40.4235 -40.4171 -40.4171 -40.4076 -40.3034 -40.3034
     9.7488   9.7488   9.9028  10.3277  10.9886  10.9886  11.3951  12.0591
    12.0591  12.5140  15.4912  15.4912

          k = 0.3333 0.5774 0.2299 (  1434 PWs)   bands (ev):

   -74.2370 -74.2370 -40.4190 -40.4190 -40.4186 -40.4126 -40.3013 -40.3013
    10.0431  10.0510  10.0510  10.2094  10.5358  10.5358  11.6461  12.0556
    12.2450  12.2450  15.7247  15.7247

     the Fermi energy is    10.9417 ev

!    total energy              =    -658.41321495 Ry
     Harris-Foulkes estimate   =    -658.41321490 Ry
     estimated scf accuracy    <          5.8E-10 Ry

     total all-electron energy =     -5091.006286 Ry

     The total energy is the sum of the following terms:

     one-electron contribution =    -296.43653523 Ry
     hartree contribution      =     160.48817511 Ry
     xc contribution           =     -69.41916335 Ry
     ewald contribution        =    -300.76700870 Ry
     one-center paw contrib.   =    -152.27926265 Ry
     smearing contrib. (-TS)   =       0.00057987 Ry

     total magnetization       =     5.99 Bohr mag/cell
     absolute magnetization    =     6.26 Bohr mag/cell

     convergence has been achieved in  17 iterations

     Forces acting on atoms (Ry/au):


     negative rho (up, down):  0.000E+00 1.018E-03
     atom    1 type  1   force =     0.00000000    0.00000000    0.00000000
     atom    2 type  1   force =     0.00000000    0.00000000    0.00000000

     Total force =     0.000000     Total SCF correction =     0.000000


     entering subroutine stress ...


     negative rho (up, down):  0.000E+00 1.018E-03
          total   stress  (Ry/bohr**3)                   (kbar)     P= -286.17
  -0.00200445   0.00000000   0.00000000       -294.86      0.00      0.00
   0.00000000  -0.00200445   0.00000000          0.00   -294.86      0.00
  -0.00000000  -0.00000000  -0.00182719         -0.00     -0.00   -268.79


     Writing output data file Fe_hcp.save

     init_run     :      4.49s CPU      4.43s WALL (       1 calls)
     electrons    :    139.40s CPU    130.80s WALL (       1 calls)
     forces       :      0.81s CPU      0.69s WALL (       1 calls)
     stress       :      2.21s CPU      2.21s WALL (       1 calls)

     Called by init_run:
     wfcinit      :      2.84s CPU      2.70s WALL (       1 calls)
     potinit      :      1.02s CPU      1.07s WALL (       1 calls)

     Called by electrons:
     c_bands      :    104.50s CPU     95.76s WALL (      17 calls)
     sum_band     :     16.76s CPU     16.36s WALL (      17 calls)
     v_of_rho     :      1.01s CPU      1.04s WALL (      18 calls)
     newd         :      1.26s CPU      1.31s WALL (      18 calls)
     mix_rho      :      0.17s CPU      0.22s WALL (      17 calls)

     Called by c_bands:
     init_us_2    :      1.47s CPU      1.49s WALL (    2664 calls)
     cegterg      :    100.29s CPU     91.51s WALL (    1224 calls)

     Called by *egterg:
     h_psi        :     80.02s CPU     77.14s WALL (    4254 calls)
     s_psi        :      3.57s CPU      2.04s WALL (    4254 calls)
     g_psi        :      0.53s CPU      0.53s WALL (    2958 calls)
     cdiaghg      :      4.19s CPU      4.23s WALL (    4182 calls)

     Called by h_psi:
     add_vuspsi   :      4.23s CPU      2.41s WALL (    4254 calls)

     General routines
     calbec       :      5.56s CPU      3.16s WALL (    5622 calls)
     fft          :      0.58s CPU      0.58s WALL (     592 calls)
     ffts         :      0.05s CPU      0.05s WALL (      70 calls)
     fftw         :     76.63s CPU     77.31s WALL (  153954 calls)
     interpolate  :      0.13s CPU      0.14s WALL (      70 calls)
     davcio       :      0.00s CPU      0.04s WALL (      72 calls)


     PAW routines
     PAW_pot      :     16.68s CPU     17.10s WALL (      18 calls)
     PAW_symme    :      0.02s CPU      0.02s WALL (      35 calls)

     PWSCF        :  2m27.41s CPU     2m18.73s WALL


   This run was terminated on:  21: 3:16  11May2015            

=------------------------------------------------------------------------------=
   JOB DONE.
=------------------------------------------------------------------------------=
