
     Program PWSCF v.5.1.2 starts on 12May2015 at  8:20:20 

     This program is part of the open-source Quantum ESPRESSO suite
     for quantum simulation of materials; please cite
         "P. Giannozzi et al., J. Phys.:Condens. Matter 21 395502 (2009);
          URL http://www.quantum-espresso.org", 
     in publications or presentations arising from this work. More details at
     http://www.quantum-espresso.org/quote

     Serial version
     Reading input from Fe_HCP_5.46_174_11_6.pw.in

     Current dimensions of program PWSCF are:
     Max number of different atomic species (ntypx) = 10
     Max number of k-points (npk) =  40000
     Max angular momentum in pseudopotentials (lmaxx) =  3
               file Fe.pbe-spn-kjpaw_psl.0.2.1.UPF: wavefunction(s)  3D renormalized

     G-vector sticks info
     --------------------
     sticks:   dense  smooth     PW     G-vecs:    dense   smooth      PW
     Sum         511     421    121                16421    11827    2027

     Generating pointlists ...
     new r_m :   0.4125 (alat units)  2.2523 (a.u.) for type    1


     bravais-lattice index     =            4
     lattice parameter (alat)  =       5.4600  a.u.
     unit-cell volume          =     245.2776 (a.u.)^3
     number of atoms/cell      =            2
     number of atomic types    =            1
     number of electrons       =        32.00
     number of Kohn-Sham states=           20
     kinetic-energy cutoff     =      50.0000  Ry
     charge density cutoff     =     250.0000  Ry
     convergence threshold     =      1.0E-08
     mixing beta               =       0.7000
     number of iterations used =            8  plain     mixing
     Exchange-correlation      =  SLA  PW   PBX  PBC ( 1  4  3  4 0 0)

     celldm(1)=   5.460000  celldm(2)=   0.000000  celldm(3)=   1.740000
     celldm(4)=   0.000000  celldm(5)=   0.000000  celldm(6)=   0.000000

     crystal axes: (cart. coord. in units of alat)
               a(1) = (   1.000000   0.000000   0.000000 )  
               a(2) = (  -0.500000   0.866025   0.000000 )  
               a(3) = (   0.000000   0.000000   1.740000 )  

     reciprocal axes: (cart. coord. in units 2 pi/alat)
               b(1) = (  1.000000  0.577350 -0.000000 )  
               b(2) = (  0.000000  1.154701  0.000000 )  
               b(3) = (  0.000000 -0.000000  0.574713 )  


     PseudoPot. # 1 for Fe read from file:
     ./Fe.pbe-spn-kjpaw_psl.0.2.1.UPF
     MD5 check sum: a0a08122d52b112de96d1da1d7dd020f
     Pseudo is Projector augmented-wave + core cor, Zval = 16.0
     Generated using "atomic" code by A. Dal Corso  v.5.0.2 svn rev. 9415
     Shape of augmentation charge: PSQ
     Using radial grid of 1191 points,  6 beta functions with: 
                l(1) =   0
                l(2) =   0
                l(3) =   1
                l(4) =   1
                l(5) =   2
                l(6) =   2
     Q(r) pseudized with 0 coefficients 


     atomic species   valence    mass     pseudopotential
        Fe            16.00    55.85000     Fe( 1.00)

     Starting magnetic structure 
     atomic species   magnetization
        Fe           0.700

     24 Sym. Ops., with inversion, found (12 have fractional translation)



   Cartesian axes

     site n.     atom                  positions (alat units)
         1           Fe  tau(   1) = (  -0.0000000   0.5773503   0.4350000  )
         2           Fe  tau(   2) = (   0.5000000   0.2886751   1.3050000  )

     number of k points=   128  Marzari-Vanderbilt smearing, width (Ry)=  0.0250

     Number of k-points >= 100: set verbosity='high' to print them.

     Dense  grid:    16421 G-vectors     FFT dimensions: (  27,  27,  48)

     Smooth grid:    11827 G-vectors     FFT dimensions: (  25,  25,  45)

     Largest allocated arrays     est. size (Mb)     dimensions
        Kohn-Sham Wavefunctions         0.45 Mb     (    1485,   20)
        NL pseudopotentials             0.82 Mb     (    1485,   36)
        Each V/rho on FFT grid          1.07 Mb     (   34992,   2)
        Each G-vector array             0.13 Mb     (   16421)
        G-vector shells                 0.01 Mb     (     853)
     Largest temporary arrays     est. size (Mb)     dimensions
        Auxiliary wavefunctions         1.81 Mb     (    1485,   80)
        Each subspace H/S matrix        0.10 Mb     (      80,   80)
        Each <psi_i|beta_j> matrix      0.01 Mb     (      36,   20)
        Arrays for rho mixing           4.27 Mb     (   34992,    8)

     Check: negative/imaginary core charge=   -0.000311    0.000000

     Initial potential from superposition of free atoms

     starting charge   31.99912, renormalised to   32.00000
     Starting wfc are   26 randomized atomic wfcs

     total cpu time spent up to now is        7.5 secs

     Self-consistent Calculation

     iteration #  1     ecut=    50.00 Ry     beta=0.70
     Davidson diagonalization with overlap
     ethr =  1.00E-02,  avg # of iterations =  1.9

     negative rho (up, down):  0.000E+00 1.127E-03

     Magnetic moment per site:
     atom:    1    charge:   14.6153    magn:    5.9524    constr:    0.0000
     atom:    2    charge:   14.6153    magn:    5.9524    constr:    0.0000

     total cpu time spent up to now is       19.8 secs

     total energy              =    -657.95831367 Ry
     Harris-Foulkes estimate   =    -656.24645563 Ry
     estimated scf accuracy    <       2.83234567 Ry

     total magnetization       =     8.00 Bohr mag/cell
     absolute magnetization    =     8.29 Bohr mag/cell

     iteration #  2     ecut=    50.00 Ry     beta=0.70
     Davidson diagonalization with overlap
     ethr =  8.85E-03,  avg # of iterations =  1.6

     negative rho (up, down):  0.000E+00 1.093E-03

     Magnetic moment per site:
     atom:    1    charge:   14.8431    magn:    4.0536    constr:    0.0000
     atom:    2    charge:   14.8431    magn:    4.0536    constr:    0.0000

     total cpu time spent up to now is       31.1 secs

     total energy              =    -658.11813426 Ry
     Harris-Foulkes estimate   =    -658.17295703 Ry
     estimated scf accuracy    <       0.85785844 Ry

     total magnetization       =     6.57 Bohr mag/cell
     absolute magnetization    =     6.87 Bohr mag/cell

     iteration #  3     ecut=    50.00 Ry     beta=0.70
     Davidson diagonalization with overlap
     ethr =  2.68E-03,  avg # of iterations =  3.0

     negative rho (up, down):  0.000E+00 1.289E-03

     Magnetic moment per site:
     atom:    1    charge:   14.7275    magn:    3.0686    constr:    0.0000
     atom:    2    charge:   14.7275    magn:    3.0686    constr:    0.0000

     total cpu time spent up to now is       44.9 secs

     total energy              =    -658.15522740 Ry
     Harris-Foulkes estimate   =    -658.64627962 Ry
     estimated scf accuracy    <       1.38166169 Ry

     total magnetization       =     6.77 Bohr mag/cell
     absolute magnetization    =     7.04 Bohr mag/cell

     iteration #  4     ecut=    50.00 Ry     beta=0.70
     Davidson diagonalization with overlap
     ethr =  2.68E-03,  avg # of iterations =  2.7

     negative rho (up, down):  0.000E+00 1.086E-03

     Magnetic moment per site:
     atom:    1    charge:   14.7833    magn:    3.0524    constr:    0.0000
     atom:    2    charge:   14.7833    magn:    3.0524    constr:    0.0000

     total cpu time spent up to now is       58.0 secs

     total energy              =    -658.39204229 Ry
     Harris-Foulkes estimate   =    -658.39194818 Ry
     estimated scf accuracy    <       0.00638303 Ry

     total magnetization       =     5.94 Bohr mag/cell
     absolute magnetization    =     6.32 Bohr mag/cell

     iteration #  5     ecut=    50.00 Ry     beta=0.70
     Davidson diagonalization with overlap
     ethr =  1.99E-05,  avg # of iterations =  3.3

     negative rho (up, down):  0.000E+00 1.093E-03

     Magnetic moment per site:
     atom:    1    charge:   14.7757    magn:    3.0560    constr:    0.0000
     atom:    2    charge:   14.7757    magn:    3.0560    constr:    0.0000

     total cpu time spent up to now is       75.5 secs

     total energy              =    -658.39886811 Ry
     Harris-Foulkes estimate   =    -658.39783508 Ry
     estimated scf accuracy    <       0.00079668 Ry

     total magnetization       =     5.97 Bohr mag/cell
     absolute magnetization    =     6.32 Bohr mag/cell

     iteration #  6     ecut=    50.00 Ry     beta=0.70
     Davidson diagonalization with overlap
     ethr =  2.49E-06,  avg # of iterations =  2.1

     negative rho (up, down):  0.000E+00 1.048E-03

     Magnetic moment per site:
     atom:    1    charge:   14.7765    magn:    3.0453    constr:    0.0000
     atom:    2    charge:   14.7765    magn:    3.0453    constr:    0.0000

     total cpu time spent up to now is       87.1 secs

     total energy              =    -658.39906353 Ry
     Harris-Foulkes estimate   =    -658.39910703 Ry
     estimated scf accuracy    <       0.00058993 Ry

     total magnetization       =     5.96 Bohr mag/cell
     absolute magnetization    =     6.30 Bohr mag/cell

     iteration #  7     ecut=    50.00 Ry     beta=0.70
     Davidson diagonalization with overlap
     ethr =  1.84E-06,  avg # of iterations =  2.9

     negative rho (up, down):  0.000E+00 1.072E-03

     Magnetic moment per site:
     atom:    1    charge:   14.7757    magn:    3.0506    constr:    0.0000
     atom:    2    charge:   14.7757    magn:    3.0506    constr:    0.0000

     total cpu time spent up to now is      101.6 secs

     total energy              =    -658.40010275 Ry
     Harris-Foulkes estimate   =    -658.39961057 Ry
     estimated scf accuracy    <       0.00007235 Ry

     total magnetization       =     5.95 Bohr mag/cell
     absolute magnetization    =     6.27 Bohr mag/cell

     iteration #  8     ecut=    50.00 Ry     beta=0.70
     Davidson diagonalization with overlap
     ethr =  2.26E-07,  avg # of iterations =  3.1

     negative rho (up, down):  0.000E+00 1.070E-03

     Magnetic moment per site:
     atom:    1    charge:   14.7766    magn:    3.0478    constr:    0.0000
     atom:    2    charge:   14.7766    magn:    3.0478    constr:    0.0000

     total cpu time spent up to now is      118.2 secs

     total energy              =    -658.40021714 Ry
     Harris-Foulkes estimate   =    -658.40017322 Ry
     estimated scf accuracy    <       0.00029306 Ry

     total magnetization       =     5.95 Bohr mag/cell
     absolute magnetization    =     6.27 Bohr mag/cell

     iteration #  9     ecut=    50.00 Ry     beta=0.70
     Davidson diagonalization with overlap
     ethr =  2.26E-07,  avg # of iterations =  2.0

     negative rho (up, down):  0.000E+00 1.049E-03

     Magnetic moment per site:
     atom:    1    charge:   14.7780    magn:    3.0343    constr:    0.0000
     atom:    2    charge:   14.7780    magn:    3.0343    constr:    0.0000

     total cpu time spent up to now is      130.2 secs

     total energy              =    -658.40010565 Ry
     Harris-Foulkes estimate   =    -658.40023113 Ry
     estimated scf accuracy    <       0.00024876 Ry

     total magnetization       =     5.95 Bohr mag/cell
     absolute magnetization    =     6.26 Bohr mag/cell

     iteration # 10     ecut=    50.00 Ry     beta=0.70
     Davidson diagonalization with overlap
     ethr =  2.26E-07,  avg # of iterations =  3.3

     negative rho (up, down):  0.000E+00 1.053E-03

     Magnetic moment per site:
     atom:    1    charge:   14.7770    magn:    3.0380    constr:    0.0000
     atom:    2    charge:   14.7770    magn:    3.0380    constr:    0.0000

     total cpu time spent up to now is      146.3 secs

     total energy              =    -658.40044245 Ry
     Harris-Foulkes estimate   =    -658.40026418 Ry
     estimated scf accuracy    <       0.00003132 Ry

     total magnetization       =     5.94 Bohr mag/cell
     absolute magnetization    =     6.24 Bohr mag/cell

     iteration # 11     ecut=    50.00 Ry     beta=0.70
     Davidson diagonalization with overlap
     ethr =  9.79E-08,  avg # of iterations =  2.1

     negative rho (up, down):  0.000E+00 1.052E-03

     Magnetic moment per site:
     atom:    1    charge:   14.7771    magn:    3.0368    constr:    0.0000
     atom:    2    charge:   14.7771    magn:    3.0368    constr:    0.0000

     total cpu time spent up to now is      158.6 secs

     total energy              =    -658.40045386 Ry
     Harris-Foulkes estimate   =    -658.40044714 Ry
     estimated scf accuracy    <       0.00000146 Ry

     total magnetization       =     5.94 Bohr mag/cell
     absolute magnetization    =     6.25 Bohr mag/cell

     iteration # 12     ecut=    50.00 Ry     beta=0.70
     Davidson diagonalization with overlap
     ethr =  4.58E-09,  avg # of iterations =  3.6

     negative rho (up, down):  0.000E+00 1.052E-03

     Magnetic moment per site:
     atom:    1    charge:   14.7773    magn:    3.0364    constr:    0.0000
     atom:    2    charge:   14.7773    magn:    3.0364    constr:    0.0000

     total cpu time spent up to now is      174.6 secs

     total energy              =    -658.40045734 Ry
     Harris-Foulkes estimate   =    -658.40045537 Ry
     estimated scf accuracy    <       0.00000067 Ry

     total magnetization       =     5.94 Bohr mag/cell
     absolute magnetization    =     6.24 Bohr mag/cell

     iteration # 13     ecut=    50.00 Ry     beta=0.70
     Davidson diagonalization with overlap
     ethr =  2.10E-09,  avg # of iterations =  2.3

     negative rho (up, down):  0.000E+00 1.052E-03

     Magnetic moment per site:
     atom:    1    charge:   14.7774    magn:    3.0359    constr:    0.0000
     atom:    2    charge:   14.7774    magn:    3.0359    constr:    0.0000

     total cpu time spent up to now is      187.6 secs

     total energy              =    -658.40045785 Ry
     Harris-Foulkes estimate   =    -658.40045758 Ry
     estimated scf accuracy    <       0.00000037 Ry

     total magnetization       =     5.94 Bohr mag/cell
     absolute magnetization    =     6.24 Bohr mag/cell

     iteration # 14     ecut=    50.00 Ry     beta=0.70
     Davidson diagonalization with overlap
     ethr =  1.16E-09,  avg # of iterations =  2.6

     negative rho (up, down):  0.000E+00 1.052E-03

     Magnetic moment per site:
     atom:    1    charge:   14.7774    magn:    3.0359    constr:    0.0000
     atom:    2    charge:   14.7774    magn:    3.0359    constr:    0.0000

     total cpu time spent up to now is      200.1 secs

     total energy              =    -658.40045826 Ry
     Harris-Foulkes estimate   =    -658.40045804 Ry
     estimated scf accuracy    <       0.00000004 Ry

     total magnetization       =     5.94 Bohr mag/cell
     absolute magnetization    =     6.24 Bohr mag/cell

     iteration # 15     ecut=    50.00 Ry     beta=0.70
     Davidson diagonalization with overlap
     ethr =  1.38E-10,  avg # of iterations =  3.1

     negative rho (up, down):  0.000E+00 1.051E-03

     Magnetic moment per site:
     atom:    1    charge:   14.7774    magn:    3.0356    constr:    0.0000
     atom:    2    charge:   14.7774    magn:    3.0356    constr:    0.0000

     total cpu time spent up to now is      212.7 secs

     total energy              =    -658.40045825 Ry
     Harris-Foulkes estimate   =    -658.40045828 Ry
     estimated scf accuracy    <       0.00000009 Ry

     total magnetization       =     5.94 Bohr mag/cell
     absolute magnetization    =     6.24 Bohr mag/cell

     iteration # 16     ecut=    50.00 Ry     beta=0.70
     Davidson diagonalization with overlap
     ethr =  1.38E-10,  avg # of iterations =  3.0

     negative rho (up, down):  0.000E+00 1.051E-03

     Magnetic moment per site:
     atom:    1    charge:   14.7774    magn:    3.0356    constr:    0.0000
     atom:    2    charge:   14.7774    magn:    3.0356    constr:    0.0000

     total cpu time spent up to now is      227.2 secs

     End of self-consistent calculation

     Number of k-points >= 100: set verbosity='high' to print the bands.

     the Fermi energy is    10.4949 ev

!    total energy              =    -658.40045836 Ry
     Harris-Foulkes estimate   =    -658.40045830 Ry
     estimated scf accuracy    <          1.3E-09 Ry

     total all-electron energy =     -5090.993529 Ry

     The total energy is the sum of the following terms:

     one-electron contribution =    -302.00613592 Ry
     hartree contribution      =     162.74757005 Ry
     xc contribution           =     -69.40318368 Ry
     ewald contribution        =    -297.46187674 Ry
     one-center paw contrib.   =    -152.27740696 Ry
     smearing contrib. (-TS)   =       0.00057488 Ry

     total magnetization       =     5.94 Bohr mag/cell
     absolute magnetization    =     6.24 Bohr mag/cell

     convergence has been achieved in  16 iterations

     Forces acting on atoms (Ry/au):


     negative rho (up, down):  0.000E+00 1.051E-03
     atom    1 type  1   force =    -0.00000000    0.00000000    0.00000000
     atom    2 type  1   force =     0.00000000    0.00000000    0.00000000

     Total force =     0.000000     Total SCF correction =     0.000000


     entering subroutine stress ...


     negative rho (up, down):  0.000E+00 1.051E-03
          total   stress  (Ry/bohr**3)                   (kbar)     P= -288.80
  -0.00204773  -0.00000000   0.00000000       -301.23     -0.00      0.00
  -0.00000000  -0.00204773  -0.00000000         -0.00   -301.23     -0.00
   0.00000000   0.00000000  -0.00179416          0.00      0.00   -263.93


     Writing output data file Fe_hcp.save

     init_run     :      7.18s CPU      7.15s WALL (       1 calls)
     electrons    :    231.75s CPU    219.73s WALL (       1 calls)
     forces       :      1.21s CPU      0.92s WALL (       1 calls)
     stress       :      3.24s CPU      3.24s WALL (       1 calls)

     Called by init_run:
     wfcinit      :      5.40s CPU      5.25s WALL (       1 calls)
     potinit      :      1.14s CPU      1.22s WALL (       1 calls)

     Called by electrons:
     c_bands      :    185.32s CPU    173.00s WALL (      16 calls)
     sum_band     :     28.29s CPU     27.81s WALL (      16 calls)
     v_of_rho     :      1.03s CPU      1.07s WALL (      17 calls)
     newd         :      1.30s CPU      1.41s WALL (      17 calls)
     mix_rho      :      0.17s CPU      0.21s WALL (      16 calls)

     Called by c_bands:
     init_us_2    :      2.61s CPU      2.67s WALL (    4480 calls)
     cegterg      :    178.00s CPU    165.46s WALL (    2048 calls)

     Called by *egterg:
     h_psi        :    141.28s CPU    138.74s WALL (    7643 calls)
     s_psi        :      6.55s CPU      3.86s WALL (    7643 calls)
     g_psi        :      0.93s CPU      0.96s WALL (    5467 calls)
     cdiaghg      :      7.59s CPU      7.79s WALL (    7515 calls)

     Called by h_psi:
     add_vuspsi   :      7.57s CPU      4.48s WALL (    7643 calls)

     General routines
     calbec       :     10.11s CPU      5.77s WALL (    9947 calls)
     fft          :      0.60s CPU      0.61s WALL (     561 calls)
     ffts         :      0.05s CPU      0.05s WALL (      66 calls)
     fftw         :    134.91s CPU    138.59s WALL (  258760 calls)
     interpolate  :      0.13s CPU      0.14s WALL (      66 calls)
     davcio       :      0.00s CPU      0.09s WALL (     128 calls)


     PAW routines
     PAW_pot      :     16.73s CPU     17.41s WALL (      17 calls)
     PAW_symme    :      0.02s CPU      0.02s WALL (      33 calls)

     PWSCF        :  4m 3.90s CPU     3m51.75s WALL


   This run was terminated on:   8:24:12  12May2015            

=------------------------------------------------------------------------------=
   JOB DONE.
=------------------------------------------------------------------------------=
